Si O
           1
    25.000000    0.000000    0.000000
     0.000000   25.000000    0.000000
     0.000000    0.000000   25.000000
 Si               O               
              167              333
Direct configuration=     1
  0.90474159  0.15593985  0.71084763
  0.79776161  0.56370232  0.06894519
  0.65477425  0.48054535  0.37145386
  0.19711794  0.27065859  0.01228653
  0.51943634  0.56565151  0.05410278
  0.13757861  0.75871704  0.97316551
  0.24381821  0.20930843  0.20796923
  0.09525397  0.76781036  0.05917253
  0.26609632  0.29659779  0.36514328
  0.80894447  0.89171402  0.36537701
  0.22272999  0.61327164  0.58390823
  0.28745218  0.08330680  0.49451462
  0.89451340  0.90475945  0.93386475
  0.31299036  0.93928040  0.79334366
  0.83617455  0.52046947  0.08506052
  0.91128899  0.32581360  0.35486336
  0.62870441  0.84087669  0.99756516
  0.37934132  0.10818480  0.35225700
  0.63830536  0.96332886  0.68376770
  0.46358715  0.57717152  0.76188141
  0.25143450  0.90579674  0.36040455
  0.99791977  0.88498512  0.17130005
  0.72119225  0.44930046  0.37748230
  0.27206913  0.83048859  0.18781454
  0.10959891  0.78253288  0.71736755
  0.64619492  0.07525770  0.12120205
  0.18600052  0.83688408  0.42571056
  0.23656898  0.64304451  0.28039213
  0.33169884  0.33165112  0.69897148
  0.88416367  0.79189247  0.89409271
  0.41645378  0.26347424  0.95028465
  0.28859877  0.69832611  0.60559799
  0.37936615  0.44358791  0.52197918
  0.58980537  0.66785789  0.55607609
  0.26862539  0.20341715  0.12196409
  0.81655426  0.45005383  0.68390785
  0.81206413  0.20905792  0.42611172
  0.67603378  0.42475525  0.32109344
  0.93483589  0.53014828  0.10789888
  0.10587444  0.07881267  0.64886986
  0.97193932  0.10817590  0.09805838
  0.00092210  0.14161343  0.28858601
  0.92134247  0.15699042  0.98316902
  0.88237236  0.98078102  0.16135120
  0.26541767  0.14620830  0.09073112
  0.68847710  0.96360779  0.96555740
  0.65032196  0.71761787  0.10758641
  0.60629978  0.47518002  0.15187798
  0.65423492  0.82181236  0.64410477
  0.71227898  0.96919991  0.62825226
  0.50546791  0.60996140  0.34435394
  0.00631111  0.22655857  0.47630360
  0.81043564  0.75873238  0.62837212
  0.35091057  0.33509251  0.60791199
  0.84611450  0.83218018  0.82507370
  0.54566753  0.48828674  0.33415855
  0.09666551  0.33638489  0.17670055
  0.38861530  0.94782867  0.23550890
  0.48621727  0.30804798  0.89099419
  0.18818048  0.60418499  0.03474420
  0.88867378  0.00287492  0.77718826
  0.94762413  0.72997643  0.14145089
  0.73933830  0.62570595  0.80802826
  0.31242264  0.66168633  0.88504539
  0.06718323  0.36951004  0.84909523
  0.26190575  0.33030510  0.14855824
  0.18228430  0.41098408  0.12438171
  0.00800788  0.82731544  0.63286125
  0.44061512  0.57880589  0.46391205
  0.37082142  0.97093513  0.31373882
  0.85683617  0.97370583  0.45212620
  0.32637669  0.44285549  0.66894333
  0.15638789  0.19564365  0.54023491
  0.30746950  0.97689857  0.85911713
  0.39810383  0.94668411  0.18707844
  0.79145607  0.17878302  0.12433400
  0.41375183  0.76406128  0.10063313
  0.25776838  0.93989334  0.55493847
  0.14174623  0.19709305  0.84165260
  0.60959839  0.61110096  0.98072784
  0.19107777  0.20651104  0.76851509
  0.55685005  0.55646450  0.71282028
  0.84578865  0.37142857  0.11174017
  0.42741680  0.89155090  0.21228781
  0.47684040  0.16809731  0.67321320
  0.42722404  0.89296051  0.36237148
  0.65229149  0.81937782  0.08964128
  0.56360203  0.48243279  0.48075523
  0.37816261  0.42404118  0.56137104
  0.51016724  0.37488297  0.75154861
  0.59930119  0.24816298  0.24836910
  0.04758201  0.73143028  0.80139145
  0.00326375  0.86574448  0.72003853
  0.40808777  0.84842285  0.90702820
  0.50181179  0.00276296  0.38629387
  0.84669914  0.11548996  0.16939947
  0.65162971  0.90484238  0.83162575
  0.57836479  0.88832390  0.45155617
  0.37858948  0.55997322  0.10421406
  0.15121167  0.42415852  0.24767496
  0.25653803  0.44926216  0.66125626
  0.90893013  0.31253674  0.52636547
  0.27546455  0.97381447  0.73979584
  0.84029877  0.52155956  0.55990936
  0.81903954  0.53132683  0.03477514
  0.73227440  0.96329971  0.89447632
  0.97214478  0.31395582  0.58890324
  0.96426109  0.18955076  0.41726227
  0.03561122  0.34477158  0.61868515
  0.09708657  0.04650873  0.42844788
  0.56990540  0.74104210  0.27845270
  0.28153719  0.97044357  0.57465893
  0.06380075  0.63323792  0.91474869
  0.68033333  0.41758385  0.50896469
  0.21334299  0.08150404  0.40850636
  0.19046677  0.17074062  0.32223389
  0.02065147  0.14231297  0.14366327
  0.11169495  0.50140888  0.00404921
  0.60918198  0.81960640  0.72790428
  0.54194363  0.93844406  0.33466309
  0.21043169  0.59758579  0.94729340
  0.40615578  0.57812111  0.77886055
  0.58332691  0.18479172  0.75289215
  0.00997806  0.69040344  0.10293467
  0.25552542  0.93962204  0.85498222
  0.04256556  0.62558090  0.04620147
  0.19613447  0.72453537  0.47339714
  0.64841393  0.87538895  0.68581573
  0.49065937  0.54152248  0.82707390
  0.46404415  0.40421524  0.93548988
  0.71572960  0.71531349  0.52215061
  0.28615759  0.97228043  0.79467300
  0.69852577  0.87285820  0.34335903
  0.77400070  0.97067825  0.98988518
  0.78576714  0.81266815  0.61814655
  0.49247044  0.26116863  0.78473679
  0.81958015  0.96655975  0.87469872
  0.28205044  0.73325882  0.20883280
  0.03425483  0.11763300  0.13146371
  0.83742928  0.99410675  0.81667023
  0.06802231  0.83770996  0.19810320
  0.08389799  0.14970117  0.83064018
  0.01463112  0.15205242  0.61517132
  0.28905140  0.16544064  0.54304909
  0.78046669  0.70191528  0.42419720
  0.99534126  0.07803518  0.09857214
  0.69006828  0.48964458  0.58657700
  0.09344198  0.54923405  0.24962347
  0.47989513  0.04785437  0.00187161
  0.27745226  0.87403297  0.43288528
  0.34605652  0.01339036  0.78564461
  0.92768082  0.51908085  0.88442558
  0.23059626  0.79403130  0.09016183
  0.15995342  0.21768606  0.27724991
  0.64512489  0.43767372  0.76261482
  0.33392452  0.62954216  0.69905106
  0.15876534  0.18351732  0.01790788
  0.83121254  0.70934799  0.62562847
  0.82063232  0.85205521  0.17825317
  0.51976303  0.46210537  0.62136189
  0.32966339  0.20995935  0.83525299
  0.89255424  0.51536617  0.77668495
  0.84244560  0.11978865  0.77522141
  0.42506699  0.72971703  0.46093861
  0.16494940  0.08065779  0.25368538
  0.11996799  0.75521240  0.08388098
  0.65320053  0.32629417  0.92952766
  0.32033703  0.30694084  0.26769043
  0.33689575  0.25004566  0.62066437
  0.60843342  0.10852355  0.91674828
  0.79223503  0.86027214  0.12720357
  0.87090881  0.98864578  0.80449692
  0.75905899  0.82701843  0.09897651
  0.57767227  0.43237324  0.45551418
  0.33550247  0.71451981  0.29589289
  0.77977463  0.05120254  0.26846178
  0.06824983  0.86204941  0.29292288
  0.36690914  0.84266396  0.81327347
  0.74674622  0.19964258  0.46272926
  0.13338029  0.59466320  0.40353558
  0.45592464  0.93971550  0.49100159
  0.22966812  0.59564262  0.71851891
  0.93332291  0.95693062  0.59791195
  0.62687290  0.00818620  0.03484576
  0.91046753  0.01803547  0.88509834
  0.77937187  0.26707876  0.39712654
  0.70887215  0.43067017  0.16675303
  0.86834991  0.30057228  0.35180153
  0.27767223  0.45920269  0.31982529
  0.38552132  0.00446642  0.38255756
  0.43144508  0.54574017  0.69746216
  0.68578445  0.91112427  0.50582966
  0.43267185  0.79611809  0.75871864
  0.96532021  0.57171913  0.03884504
  0.80839081  0.22215683  0.07036520
  0.25670795  0.67185555  0.49208485
  0.09540737  0.85044037  0.88112312
  0.09318558  0.32438240  0.72488808
  0.71015175  0.37688278  0.86559570
  0.49811131  0.44830650  0.06495178
  0.34704765  0.05624378  0.48531090
  0.58459766  0.60571224  0.79939148
  0.23816019  0.44355736  0.70426270
  0.81135757  0.74330902  0.74215614
  0.87470314  0.21231348  0.60366631
  0.08503722  0.49262516  0.29886831
  0.75761765  0.31207901  0.10937694
  0.42999943  0.87763550  0.75672157
  0.12551361  0.67918770  0.84194359
  0.54375832  0.13769835  0.81667580
  0.15954954  0.04538665  0.26806320
  0.16366587  0.65731918  0.61282036
  0.20926735  0.49209988  0.04167553
  0.86173271  0.97361504  0.67409546
  0.26544407  0.24045544  0.60966160
  0.38784573  0.65551003  0.03080121
  0.07787841  0.99202385  0.59855240
  0.39593285  0.47252407  0.68985382
  0.64349319  0.11759822  0.88465446
  0.39767128  0.09755349  0.03744556
  0.02533912  0.55535393  0.79659462
  0.76424316  0.17433050  0.01585663
  0.47874596  0.27048103  0.44497620
  0.17359880  0.28841600  0.37022160
  0.07952864  0.77124794  0.74730751
  0.82162979  0.93742661  0.91955521
  0.12363047  0.19916485  0.89899689
  0.37435104  0.00296126  0.48155613
  0.84302589  0.09183208  0.00116346
  0.55601273  0.41044884  0.31555529
  0.75532722  0.77800713  0.71895264
  0.29291403  0.16869106  0.05137435
  0.90644386  0.96511406  0.06895973
  0.96129509  0.65830971  0.80553673
  0.66315651  0.63987820  0.17598177
  0.68388252  0.60514809  0.36576820
  0.09331614  0.59663216  0.07830052
  0.00467140  0.79772530  0.76462852
  0.48438976  0.68736534  0.09730726
  0.68696007  0.05217000  0.00082024
  0.90642433  0.81161606  0.72843788
  0.22586090  0.25705807  0.58341442
  0.36127838  0.23651669  0.02850863
  0.89738274  0.81927940  0.25437569
  0.56675865  0.13988917  0.58269821
  0.71297516  0.26876999  0.95346786
  0.95940666  0.45841606  0.08162189
  0.33560169  0.58587402  0.55618610
  0.39627583  0.78111458  0.76871346
  0.88434578  0.84496849  0.79165611
  0.04328642  0.94345543  0.25284107
  0.39356277  0.55218082  0.24100485
  0.29857649  0.56794235  0.77618385
  0.63843220  0.62846348  0.95014404
  0.02510041  0.02824005  0.84638054
  0.75126007  0.35707081  0.22541265
  0.90305275  0.43803528  0.51088646
  0.24780107  0.41823700  0.58189617
  0.75374313  0.84692177  0.87025803
  0.14752832  0.84579193  0.15333312
  0.17490295  0.56312279  0.87025192
  0.34488613  0.38684170  0.72045319
  0.45585571  0.11126075  0.71608498
  0.27168589  0.16939713  0.63089619
  0.28157980  0.19457214  0.70484413
  0.59074581  0.00247551  0.27118919
  0.91892670  0.05239910  0.78648560
  0.35468571  0.02924870  0.62601784
  0.27309696  0.10770622  0.79122635
  0.59185577  0.36334873  0.21859005
  0.57451897  0.44930668  0.87095444
  0.74453072  0.57539673  0.05307251
  0.92960770  0.65193047  0.42930546
  0.38827274  0.03276941  0.98862831
  0.54510735  0.82878235  0.25472382
  0.22314993  0.50468338  0.96236794
  0.54845535  0.47390533  0.70112328
  0.54177410  0.78282181  0.21728378
  0.93298790  0.77703690  0.14581599
  0.53127342  0.57058372  0.87787460
  0.05411136  0.67207367  0.18835285
  0.52950165  0.12499603  0.87380836
  0.58326664  0.50158413  0.07791976
  0.24710001  0.10558652  0.30597685
  0.41967117  0.89131004  0.46605118
  0.90333733  0.81957657  0.35764580
  0.05193199  0.71312996  0.34994610
  0.01276524  0.92987740  0.36289257
  0.54142044  0.48943062  0.78980820
  0.87704849  0.66550125  0.06385592
  0.80667969  0.70231621  0.14080255
  0.96894341  0.69000191  0.73039963
  0.41131771  0.59587917  0.47298149
  0.89183632  0.39000450  0.29201897
  0.43504101  0.31656656  0.94329788
  0.09660422  0.56836006  0.51707260
  0.60650169  0.11937039  0.09713954
  0.18925024  0.96271957  0.06639920
  0.31343962  0.20345266  0.15897393
  0.21907150  0.47397251  0.42479813
  0.30838751  0.25569942  0.84900513
  0.01981350  0.75543671  0.79483887
  0.47402847  0.24714556  0.72242065
  0.93044899  0.32872883  0.99140594
  0.37156219  0.15380512  0.40206772
  0.90454353  0.49735630  0.36154675
  0.93061508  0.56124332  0.51004482
  0.46057388  0.72698021  0.24045145
  0.34421570  0.91211639  0.94001884
  0.64197899  0.90007080  0.98835526
  0.15243715  0.62213238  0.68879982
  0.91632736  0.18877535  0.87033455
  0.14880079  0.79385239  0.86047249
  0.10174726  0.77277405  0.83066643
  0.57647133  0.13039432  0.40405537
  0.05349326  0.88566803  0.67016876
  0.54809612  0.45390076  0.27540380
  0.58114296  0.36213783  0.41037651
  0.49533764  0.28432581  0.40419285
  0.82441307  0.05502963  0.14840929
  0.17866987  0.03469379  0.65799316
  0.56384659  0.26784864  0.09383944
  0.02931660  0.87425751  0.93783958
  0.42599770  0.18112787  0.56368233
  0.22779501  0.60730206  0.37049881
  0.88627563  0.21913445  0.47407387
  0.28521955  0.50541542  0.60878857
  0.20203629  0.06406143  0.90243614
  0.69757813  0.58783119  0.11647048
  0.15224820  0.71523376  0.27672131
  0.60425713  0.36083183  0.99162361
  0.68173645  0.99252777  0.49865696
  0.17228783  0.68630836  0.21319136
  0.26537766  0.09199630  0.74517464
  0.01006768  0.18719469  0.62489498
  0.28885000  0.75797607  0.03600576
  0.03308556  0.70592651  0.09328653
  0.73900009  0.75978416  0.44451946
  0.21906527  0.64915962  0.31587700
  0.92153831  0.08214434  0.55882690
  0.38485992  0.33601620  0.94736992
  0.22283157  0.27798498  0.33356949
  0.79928856  0.08899900  0.29661646
  0.27985950  0.35669720  0.12714145
  0.38637474  0.72499374  0.39288773
  0.71888977  0.47067158  0.90068871
  0.30241358  0.36893845  0.59836803
  0.02926833  0.89424377  0.20833767
  0.17708181  0.18111542  0.71422043
  0.67764984  0.53484211  0.90115135
  0.40949181  0.49386971  0.40170235
  0.36637478  0.16270638  0.82559868
  0.34628181  0.45068588  0.04841100
  0.87133354  0.28423101  0.97488739
  0.68617157  0.83237007  0.21098038
  0.41265942  0.79061226  0.78310226
  0.79674889  0.50213696  0.11963886
  0.73355331  0.02403702  0.76308907
  0.73805069  0.81213249  0.47645947
  0.74531059  0.38183685  0.74509499
  0.45989174  0.07350632  0.40583702
  0.33511806  0.77149582  0.45863159
  0.27675043  0.49803753  0.26551071
  0.56426586  0.86572067  0.83572197
  0.25855309  0.62188984  0.75387238
  0.25570967  0.55570187  0.54933002
  0.31940914  0.00641727  0.37959373
  0.38196209  0.85431999  0.53760689
  0.81884315  0.45654156  0.78822922
  0.50961639  0.63586739  0.74393463
  0.42919430  0.33597416  0.15762625
  0.20986628  0.35546055  0.36727032
  0.61495728  0.32329433  0.72949966
  0.36522675  0.59133224  0.80027061
  0.09824707  0.21769911  0.03211927
  0.60456432  0.46175991  0.11107706
  0.48797077  0.42035900  0.39823162
  0.73743011  0.35591984  0.27157108
  0.61414318  0.36415718  0.44026237
  0.08452027  0.76921974  0.52444946
  0.49251789  0.42821320  0.42004639
  0.29074318  0.69506569  0.51262859
  0.01096526  0.16416418  0.36484028
  0.35603344  0.60987400  0.81299576
  0.98637512  0.36323811  0.71416451
  0.51199295  0.88604141  0.54355709
  0.77850418  0.91651619  0.12219112
  0.15612321  0.41142536  0.63747185
  0.49100819  0.17708639  0.43679329
  0.96142021  0.00001175  0.11707493
  0.85369247  0.37084743  0.62209007
  0.48191223  0.56978119  0.35038082
  0.47955654  0.26113903  0.79800011
  0.22910942  0.39700928  0.26914873
  0.84626732  0.61508884  0.49727203
  0.46655312  0.93518837  0.66726265
  0.83415924  0.50489357  0.78032486
  0.29375820  0.56578262  0.53116955
  0.85194214  0.31754148  0.21884996
  0.54695702  0.96552933  0.28383533
  0.36129940  0.20408234  0.59292316
  0.42921982  0.77039246  0.43718098
  0.63237789  0.02676869  0.38849483
  0.79889618  0.77506271  0.92982887
  0.72436142  0.87720177  0.13630588
  0.20870920  0.20015226  0.14895213
  0.53003365  0.63640305  0.58105907
  0.46471432  0.43226334  0.44466228
  0.52151901  0.10441170  0.06809413
  0.71112366  0.78473366  0.78736656
  0.66697449  0.26224648  0.35246994
  0.82267509  0.85417709  0.15978752
  0.17638275  0.66941124  0.40482189
  0.17075502  0.34830769  0.87007835
  0.77391106  0.82289597  0.40372169
  0.58890205  0.13601233  0.16384789
  0.44586521  0.71821251  0.18769995
  0.14446693  0.55273163  0.70602798
  0.02590246  0.01272842  0.60234898
  0.34325886  0.31154900  0.74104126
  0.75702438  0.90427727  0.83625252
  0.46128166  0.71397812  0.64256226
  0.11860890  0.62484154  0.45865623
  0.46287319  0.16569326  0.72205147
  0.17723297  0.39222073  0.48419617
  0.87936417  0.09154347  0.37738628
  0.23235920  0.55212811  0.23228983
  0.76844398  0.56209915  0.43204994
  0.97127785  0.60611439  0.00225202
  0.71702827  0.85661865  0.89114410
  0.07487799  0.15527552  0.14421987
  0.86575523  0.38690540  0.69636269
  0.74360596  0.96987488  0.53957371
  0.19302290  0.61630722  0.54884960
  0.52167667  0.73841789  0.40968769
  0.15710870  0.70054466  0.82615570
  0.58901554  0.05903102  0.12979029
  0.89587151  0.99847557  0.54636269
  0.18243561  0.35955257  0.21378820
  0.89751297  0.21264578  0.08297724
  0.49462765  0.10812899  0.32608517
  0.05689411  0.86286354  0.94048248
  0.83304047  0.54445030  0.50349590
  0.95893066  0.45358063  0.53458172
  0.55512794  0.75475365  0.30935055
  0.02797214  0.88518295  0.91649521
  0.15208143  0.69293770  0.73516609
  0.79361916  0.21512480  0.27512007
  0.46547180  0.51410877  0.20457125
  0.83866264  0.11343387  0.88353745
  0.25439859  0.99468567  0.75382332
  0.18290022  0.42548271  0.50514423
  0.44982182  0.51964207  0.38581806
  0.51295700  0.91773865  0.00899942
  0.55892998  0.38057785  0.65971489
  0.66479729  0.89866539  0.78020477
  0.85430214  0.20118528  0.71638298
  0.01247712  0.81182091  0.97011467
  0.70871750  0.37447720  0.13828828
  0.66989731  0.48043270  0.53830276
  0.61452202  0.65369247  0.10944369
  0.36220726  0.66418434  0.85923462
  0.71825500  0.71524414  0.10648596
  0.74172005  0.94050385  0.64174988
  0.66377213  0.43139099  0.17550663
  0.04074415  0.99356041  0.02454262
  0.65559166  0.55408993  0.54849598
  0.38747196  0.52412479  0.74759773
  0.56146843  0.00261017  0.77241600
  0.13402706  0.05797291  0.94173317
  0.75330505  0.57943691  0.14160012
  0.95909370  0.50358532  0.76669998
  0.03365454  0.46574627  0.30816360
  0.52222340  0.11594896  0.94682999
  0.23203508  0.49130688  0.61149899
  0.92730110  0.59550949  0.43953091
  0.50110615  0.20361320  0.67304901
  0.99598961  0.69621941  0.18629004
  0.72855598  0.37013794  0.40366180
  0.01114589  0.81665298  0.38636265
  0.42427059  0.84500565  0.82006393
  0.46743122  0.30348742  0.59674065
  0.59913971  0.97313057  0.86911423
  0.02196439  0.62104809  0.24464344
  0.28547953  0.46991024  0.73837761
  0.64285637  0.34599388  0.79824303
  0.17785801  0.85463051  0.91465439
  0.44139423  0.24400454  0.91152260
  0.98738190  0.15554503  0.85957329
  0.21482620  0.84708183  0.23258141
  0.00464408  0.12991727  0.24330202
  0.05129663  0.50782471  0.44333435
  0.69128479  0.01381924  0.00861812
  0.86709488  0.89277817  0.42610302
  0.58952164  0.75839508  0.43397301
  0.00966067  0.99568039  0.94000397
  0.60935440  0.03844181  0.55797638
  0.01665800  0.94923363  0.47477547
  0.11714054  0.02799093  0.53765610
  0.11043052  0.65641373  0.44850952
