Si O
           1
    25.000000    0.000000    0.000000
     0.000000   25.000000    0.000000
     0.000000    0.000000   25.000000
 Si               O               
              167              333
Direct configuration=     1
  0.76573563  0.91146492  0.98907578
  0.99641571  0.93254623  0.21718657
  0.85829163  0.34794544  0.76974678
  0.15672325  0.26157497  0.42558548
  0.80104584  0.31174093  0.40877777
  0.81157417  0.17217459  0.89307739
  0.79237076  0.89701782  0.70173042
  0.77226868  0.19702400  0.73021164
  0.40093838  0.84848091  0.06488969
  0.44670429  0.75915543  0.01524183
  0.08509338  0.68738091  0.91376343
  0.57683765  0.55655926  0.67348175
  0.01901188  0.49917202  0.43984943
  0.38871937  0.38271210  0.05678398
  0.48892189  0.12935492  0.67735130
  0.31629980  0.88501221  0.68603386
  0.29409710  0.94438873  0.78482254
  0.49483459  0.36335129  0.03529023
  0.10418719  0.38895760  0.42216290
  0.17910084  0.10952678  0.52697697
  0.68733482  0.85872772  0.45453823
  0.15177726  0.71926231  0.42914593
  0.51765278  0.47715988  0.03733413
  0.03746575  0.88676872  0.35053825
  0.39891846  0.43302277  0.36962524
  0.81294113  0.38715622  0.18441158
  0.94336487  0.10739189  0.45962139
  0.31922918  0.99145065  0.79242760
  0.89087387  0.65706032  0.23912834
  0.74216492  0.83281662  0.26720131
  0.55629826  0.20256241  0.05658063
  0.16365665  0.08671461  0.46876747
  0.48118374  0.30384764  0.44098907
  0.63715675  0.55104626  0.77146461
  0.66326508  0.62066853  0.05863956
  0.65524330  0.99441444  0.05178740
  0.66814140  0.83771950  0.25651945
  0.69765991  0.51834213  0.03083334
  0.50599094  0.84495293  0.46366238
  0.98227104  0.05464472  0.68878578
  0.10285746  0.05284434  0.10653496
  0.25223785  0.37781849  0.21850208
  0.55866703  0.67625038  0.80286560
  0.13711168  0.93738586  0.14734208
  0.49249535  0.30244375  0.80178146
  0.96317139  0.81398445  0.09172770
  0.39445339  0.49714130  0.72554451
  0.75493408  0.79509865  0.60474297
  0.56185310  0.82746971  0.86191864
  0.24659039  0.80466507  0.93365685
  0.16828228  0.33281460  0.77497124
  0.84892990  0.31029020  0.19379982
  0.32981556  0.50475849  0.80912613
  0.32707516  0.36370831  0.95917603
  0.14200143  0.16174356  0.83773224
  0.86075829  0.38397984  0.33406189
  0.42349892  0.30886030  0.01604919
  0.94600037  0.45412014  0.90080765
  0.16203993  0.95633553  0.13608040
  0.84735580  0.11573565  0.94201515
  0.01029804  0.26632563  0.68527855
  0.37474850  0.69016022  0.39931744
  0.70669762  0.73173531  0.58943878
  0.26204678  0.80097443  0.27524862
  0.43357452  0.54561241  0.18065536
  0.03264282  0.16855974  0.18510990
  0.57345249  0.36246872  0.54573868
  0.88150482  0.57783962  0.77238953
  0.12319030  0.70406357  0.16996368
  0.77359482  0.78908653  0.40123192
  0.40032776  0.41605938  0.91109360
  0.10881815  0.23007219  0.09949265
  0.89216736  0.56448627  0.98612579
  0.69920845  0.80451843  0.92240707
  0.71861595  0.98079704  0.77137291
  0.39358715  0.02603652  0.19938932
  0.03654893  0.88348480  0.97107742
  0.47585030  0.36954311  0.44316277
  0.03200367  0.01047092  0.91823380
  0.89104828  0.40363216  0.14445955
  0.36781487  0.55285175  0.30075565
  0.78517281  0.86738930  0.64621994
  0.71497116  0.38822590  0.43666222
  0.41787113  0.49722015  0.99481346
  0.93797920  0.84692757  0.31020882
  0.43257740  0.15288908  0.37624317
  0.47942448  0.47426823  0.75685501
  0.51837154  0.82183052  0.96797729
  0.19654062  0.29791483  0.96710999
  0.79466904  0.52514660  0.32354641
  0.32932365  0.05059055  0.23790224
  0.03530353  0.68372704  0.29825134
  0.15360830  0.81048996  0.73707817
  0.91073959  0.76198166  0.87332130
  0.78884468  0.60379284  0.07300304
  0.94118790  0.15880454  0.19683809
  0.13774803  0.45694054  0.18454777
  0.40874817  0.81174065  0.40635044
  0.67140450  0.52562527  0.41166286
  0.42479198  0.42857162  0.66385101
  0.71709984  0.82313759  0.37998405
  0.30467459  0.05408092  0.09877678
  0.16833563  0.24163357  0.28393761
  0.90208031  0.87459831  0.59101616
  0.48921852  0.78527267  0.93511620
  0.27968845  0.17575460  0.47742054
  0.47930244  0.00632818  0.29144159
  0.71576332  0.78988480  0.91511215
  0.82007660  0.85770348  0.54387463
  0.22819031  0.48612049  0.45942314
  0.10422808  0.43074829  0.53240147
  0.05479078  0.18277916  0.37346313
  0.76015015  0.01331439  0.36585655
  0.02269532  0.79237755  0.22513809
  0.96052605  0.03230022  0.24010820
  0.18409143  0.70542435  0.21243336
  0.69769341  0.74311134  0.62010269
  0.46384949  0.99121017  0.11937861
  0.96548203  0.47891781  0.65674683
  0.88683617  0.01187841  0.43653423
  0.07718667  0.70606644  0.65667656
  0.64188042  0.44710918  0.73189529
  0.45462791  0.17159998  0.74098450
  0.39304581  0.51593128  0.87295959
  0.92504463  0.02899542  0.72476357
  0.60653175  0.22073597  0.56494556
  0.88562622  0.12049678  0.34623878
  0.89311073  0.37124950  0.25895885
  0.69438675  0.31754625  0.47960831
  0.61130054  0.70333290  0.13573861
  0.81322929  0.76313820  0.37598621
  0.77380585  0.58959103  0.52409836
  0.68626877  0.64275070  0.46391777
  0.53044094  0.70342445  0.71311531
  0.32767830  0.44414852  0.03961600
  0.75303642  0.30909609  0.36218277
  0.89261246  0.08517655  0.93218025
  0.35247124  0.64486824  0.24355955
  0.79683601  0.03996627  0.41099934
  0.98712692  0.43087658  0.66843040
  0.47004189  0.96184013  0.16152821
  0.26272566  0.59093189  0.36423862
  0.74954437  0.74027893  0.26113243
  0.44649952  0.48421211  0.93177391
  0.62145386  0.68488274  0.08215501
  0.99562187  0.08077640  0.49645535
  0.40671040  0.02547704  0.59392830
  0.98434616  0.30374720  0.67568123
  0.11011947  0.76472717  0.49380562
  0.98605423  0.91479233  0.03542850
  0.07177776  0.84983589  0.46760326
  0.06371395  0.45538063  0.35575260
  0.66684006  0.73808502  0.91232803
  0.21739408  0.75642189  0.75356117
  0.70631462  0.44317390  0.03339020
  0.28482162  0.42168560  0.71418282
  0.24513735  0.61228085  0.60654049
  0.76954948  0.72720657  0.11605343
  0.58017780  0.72315536  0.45307484
  0.30172758  0.73730141  0.73042122
  0.56863113  0.14586976  0.30852608
  0.87138405  0.13334310  0.86659180
  0.62537827  0.84286736  0.54663036
  0.36785995  0.74254807  0.62825665
  0.65239113  0.25436314  0.82830948
  0.94713203  0.83893585  0.24544224
  0.86370865  0.02566947  0.00612954
  0.96799995  0.12566275  0.99108719
  0.90517296  0.91547768  0.03326743
  0.59142860  0.78299255  0.74665749
  0.60340508  0.85970490  0.32762550
  0.42362720  0.05204401  0.51357220
  0.83283173  0.99060974  0.43630508
  0.44385006  0.35728741  0.70333153
  0.73183510  0.32497379  0.57336475
  0.51351509  0.67990417  0.16928421
  0.94318916  0.98292320  0.26965630
  0.50562943  0.00771000  0.01552890
  0.26820692  0.23492300  0.07343589
  0.63528252  0.40407608  0.98452042
  0.58186409  0.45166740  0.00357661
  0.53782791  0.46961834  0.06095368
  0.34659363  0.72611992  0.25551104
  0.45719219  0.60600883  0.43360893
  0.68593353  0.10269711  0.71940529
  0.25599474  0.46700352  0.27643826
  0.91694824  0.82140640  0.06825289
  0.42220776  0.19146862  0.94190903
  0.77869209  0.41250168  0.33048046
  0.31431358  0.19686338  0.92184326
  0.10145539  0.35000313  0.19614452
  0.77808029  0.53808823  0.47460541
  0.61221333  0.22608547  0.68852882
  0.67665642  0.13729598  0.54478603
  0.59308117  0.50595432  0.62198582
  0.43998707  0.77280243  0.19878914
  0.17080048  0.58565224  0.70600494
  0.92690292  0.60871727  0.36806351
  0.21753183  0.08185198  0.64628052
  0.47043034  0.29974459  0.32190388
  0.35014336  0.39786201  0.46610035
  0.31224447  0.71989677  0.60566456
  0.55955402  0.88739624  0.60035889
  0.44866055  0.24555494  0.94701042
  0.97565849  0.73935173  0.53715290
  0.53589577  0.46046867  0.32264545
  0.06080200  0.69279472  0.63834457
  0.04068421  0.04511399  0.83965889
  0.02369869  0.57629051  0.17421751
  0.57469707  0.05670285  0.03208021
  0.48117256  0.53559216  0.38372185
  0.12619644  0.97789413  0.80926926
  0.11533021  0.54057537  0.55152992
  0.62989319  0.95381607  0.60780041
  0.13964834  0.26267382  0.24699785
  0.55805977  0.47352741  0.28017960
  0.10762353  0.27951782  0.36884888
  0.49832439  0.27567076  0.19306108
  0.52548725  0.01958431  0.80151855
  0.96418907  0.44136261  0.97430855
  0.11363959  0.96854820  0.90534233
  0.87937187  0.74048729  0.68929619
  0.30449223  0.23142956  0.38673080
  0.81964836  0.65418633  0.14326391
  0.47640484  0.57815613  0.00986612
  0.67010651  0.13074761  0.63538372
  0.73874382  0.40461388  0.27560152
  0.06024195  0.21042780  0.38332214
  0.13667766  0.97181625  0.37985302
  0.90001549  0.40497299  0.05543500
  0.87221855  0.72567444  0.48429649
  0.56482620  0.57692383  0.70123123
  0.06606108  0.05427413  0.45631119
  0.74168617  0.33591202  0.23652683
  0.16505316  0.54250130  0.22182093
  0.49146816  0.57802322  0.03210750
  0.62815994  0.73175079  0.47727974
  0.18886120  0.20314205  0.30529638
  0.38850151  0.84493050  0.62746368
  0.85615318  0.78025116  0.96286110
  0.03866530  0.48351067  0.26754480
  0.35525917  0.38246155  0.86687218
  0.16111038  0.87860359  0.31547844
  0.93285393  0.29553993  0.03943724
  0.55482784  0.74374802  0.62939617
  0.63482895  0.93211472  0.89540199
  0.46148884  0.49450344  0.78998840
  0.22493778  0.41296764  0.01143810
  0.29768736  0.89862808  0.98524048
  0.14023432  0.76434151  0.74725975
  0.36774166  0.99996231  0.06468515
  0.95918343  0.74996849  0.97139641
  0.39366230  0.90477913  0.13973734
  0.13686785  0.72006897  0.65960220
  0.56132397  0.08815856  0.88956711
  0.43450958  0.15848765  0.93131882
  0.80101730  0.71653694  0.59892815
  0.96164719  0.15240711  0.57405109
  0.36241459  0.87296082  0.24705091
  0.45089634  0.01560095  0.98087601
  0.20598558  0.20661373  0.04748493
  0.79405746  0.24003925  0.77361374
  0.54212269  0.27496365  0.32577396
  0.85352318  0.11796207  0.72667778
  0.28977682  0.99694321  0.60320366
  0.52404732  0.53180119  0.08902879
  0.72244713  0.97102036  0.34954807
  0.79218887  0.38365253  0.44401836
  0.14364494  0.96511414  0.21200045
  0.16948843  0.05150206  0.27163786
  0.71017365  0.76129555  0.55233479
  0.92693108  0.92076012  0.38860058
  0.58131207  0.05299203  0.71081375
  0.61521267  0.40075943  0.90984856
  0.09900000  0.26275209  0.11823504
  0.27527142  0.34179604  0.36920731
  0.24530769  0.98374733  0.02264108
  0.27556578  0.42879910  0.41116871
  0.67986298  0.42810612  0.07025215
  0.46533543  0.30556278  0.83211220
  0.35770332  0.75641991  0.52984230
  0.64419167  0.31211370  0.57905468
  0.76315628  0.37208183  0.18693483
  0.97480629  0.13765955  0.83314392
  0.62250916  0.65024849  0.36070770
  0.73721794  0.49474037  0.13372171
  0.81908760  0.31927376  0.44002895
  0.54293964  0.72776459  0.61911266
  0.07992697  0.53282768  0.56830212
  0.40724190  0.78496155  0.81908791
  0.77016937  0.89723228  0.90666801
  0.26719240  0.39830933  0.88900360
  0.49340546  0.80279701  0.32329330
  0.89083229  0.48533073  0.04543508
  0.10237516  0.82254639  0.44274345
  0.39534500  0.50197109  0.34427120
  0.51375221  0.88239250  0.70470009
  0.56769718  0.19251162  0.10994870
  0.02145074  0.12852973  0.72422623
  0.65573265  0.05392414  0.65394104
  0.31436136  0.57174816  0.80981232
  0.94829376  0.67061752  0.59622425
  0.34939423  0.07033294  0.15046700
  0.75509567  0.87403679  0.84857826
  0.81105713  0.10211199  0.51919659
  0.49403683  0.23343401  0.36652611
  0.32393982  0.60410511  0.88876190
  0.44631477  0.90411705  0.35050571
  0.74623306  0.01551412  0.79472725
  0.80027596  0.82464653  0.51805847
  0.66351143  0.15467283  0.90981293
  0.34109539  0.25301960  0.29839163
  0.89700409  0.68968285  0.65019699
  0.28050188  0.61567013  0.86069275
  0.13314381  0.20919189  0.60423126
  0.21639444  0.84516335  0.88923897
  0.98640701  0.18378761  0.57875370
  0.80998322  0.20569212  0.70422844
  0.59174942  0.31968370  0.18163864
  0.87023048  0.35811825  0.80133781
  0.20587944  0.48091888  0.35624241
  0.45842190  0.37583874  0.53738800
  0.51158253  0.44183670  0.78068817
  0.91892502  0.54622364  0.42357601
  0.57211349  0.57831497  0.13699008
  0.44278458  0.98572769  0.62131611
  0.10187674  0.81694832  0.48434059
  0.67734100  0.32445087  0.39360611
  0.31242811  0.29864706  0.71987190
  0.94636528  0.79370171  0.07745758
  0.68338036  0.66410637  0.44599510
  0.76384064  0.24523497  0.30744894
  0.48684261  0.52287121  0.70187546
  0.39705532  0.03433582  0.74269394
  0.41623035  0.15845006  0.15975955
  0.51633549  0.55782818  0.34494057
  0.51938957  0.03819107  0.75260178
  0.41918304  0.07982129  0.08108600
  0.86039055  0.54555790  0.46378525
  0.49148037  0.66534874  0.77699165
  0.61898312  0.43376801  0.94734024
  0.17114080  0.16845926  0.47764057
  0.24225342  0.84317635  0.05859004
  0.56815464  0.69744354  0.38214970
  0.65253075  0.31221811  0.96927917
  0.81110550  0.40780624  0.91873138
  0.70723335  0.85695816  0.42395546
  0.26170589  0.31978640  0.03365345
  0.36245007  0.44940590  0.83287254
  0.93042465  0.63260483  0.38009544
  0.53979362  0.97762390  0.36714165
  0.37107723  0.91163002  0.82612503
  0.26145346  0.84453972  0.18663054
  0.33780499  0.60945580  0.64707390
  0.26800638  0.12720255  0.78381836
  0.26587879  0.54187317  0.12090266
  0.30876965  0.99073990  0.26293642
  0.15428129  0.32525196  0.10308362
  0.84138100  0.84985947  0.56767803
  0.48827568  0.83346542  0.01411123
  0.49770836  0.96724556  0.39851967
  0.34773193  0.15562655  0.18147173
  0.01258007  0.45560249  0.78444107
  0.03493247  0.16668242  0.59974705
  0.78159203  0.81933647  0.91145195
  0.46586197  0.48197742  0.37802650
  0.63958794  0.58161423  0.25750879
  0.59511349  0.26685371  0.06687000
  0.50316353  0.18222477  0.67397797
  0.81310318  0.84395058  0.73597534
  0.72599449  0.21817581  0.87170410
  0.30330564  0.74476913  0.51631649
  0.72761932  0.23180355  0.73526382
  0.64492867  0.59270020  0.67671806
  0.12147854  0.14359490  0.83473885
  0.88084045  0.86010353  0.67658943
  0.82773819  0.67720909  0.42386532
  0.24758577  0.80931313  0.84822762
  0.32595100  0.92912369  0.96459213
  0.76912621  0.15277408  0.85186134
  0.55122490  0.47672958  0.35241787
  0.56072224  0.26322599  0.12882197
  0.49385231  0.37370007  0.10680102
  0.45500271  0.63569923  0.74725945
  0.37343098  0.94214272  0.02363455
  0.92195946  0.85259644  0.14623340
  0.65313370  0.20976763  0.18870342
  0.43985985  0.78793869  0.66598038
  0.59884666  0.72130890  0.37599571
  0.47173512  0.36308411  0.81869225
  0.01935375  0.63720783  0.73148621
  0.64123940  0.69263489  0.43996548
  0.79459435  0.17996946  0.23990282
  0.99269035  0.83631584  0.19586391
  0.99803219  0.94842178  0.55010288
  0.89278435  0.73435791  0.21992710
  0.37519020  0.55181904  0.22023664
  0.15013479  0.12343895  0.81461929
  0.54213181  0.76401146  0.10790958
  0.04515756  0.36612991  0.24128580
  0.17695889  0.05157997  0.49185860
  0.84896889  0.99422989  0.62453590
  0.60581322  0.51219280  0.63766739
  0.87681465  0.89144302  0.24685970
  0.32969551  0.71079712  0.71219002
  0.17374809  0.52404945  0.75620964
  0.16356876  0.60945656  0.39492218
  0.97231758  0.99139465  0.57922955
  0.18620260  0.60930046  0.88783104
  0.45342804  0.14506302  0.37604343
  0.19095413  0.08729738  0.84413765
  0.92441757  0.88328812  0.97650192
  0.54783592  0.60304508  0.24818676
  0.37698406  0.01163130  0.05473735
  0.02668268  0.11380133  0.70561646
  0.18136322  0.71202179  0.00220637
  0.86733566  0.29485992  0.63405972
  0.04465024  0.25596910  0.81659416
  0.53028675  0.36581486  0.95904694
  0.13010812  0.27686497  0.46645817
  0.08366878  0.72864052  0.40797935
  0.76697990  0.44933857  0.91032280
  0.61696941  0.17239424  0.76240601
  0.64599930  0.85369827  0.98354988
  0.63087120  0.11158796  0.59851460
  0.70636543  0.99202866  0.10755052
  0.99515228  0.58695614  0.45882969
  0.85294456  0.17966898  0.61005962
  0.61683174  0.57852276  0.98885963
  0.60783947  0.86173180  0.62989204
  0.50469971  0.90125893  0.06931335
  0.40246338  0.11018582  0.98301453
  0.30387337  0.47077667  0.87611397
  0.30565800  0.50043411  0.68826416
  0.99452835  0.89636192  0.53595322
  0.05126880  0.88922981  0.07931132
  0.12088659  0.22372843  0.14603691
  0.78271843  0.67527184  0.15350560
  0.12564278  0.63422993  0.56081879
  0.54434002  0.71698647  0.16643183
  0.85995934  0.76767380  0.43264938
  0.94484116  0.38916054  0.03510818
  0.68869530  0.95572227  0.11569062
  0.75570511  0.26962399  0.76783585
  0.92944481  0.31394705  0.19335091
  0.35101425  0.26780994  0.43832355
  0.56233814  0.89257805  0.80572098
  0.88556412  0.97509254  0.00311030
  0.07474828  0.09662121  0.71261177
  0.79856880  0.32108280  0.92071236
  0.94681915  0.34369236  0.22518957
  0.57755119  0.38247337  0.97162964
  0.39982105  0.65592514  0.01151019
  0.40032017  0.18744438  0.34667068
  0.02745682  0.04113637  0.26136951
  0.10528315  0.83777603  0.81182312
  0.14161920  0.61997280  0.42070770
  0.20577604  0.89176491  0.38524815
  0.65416847  0.79062454  0.87914604
  0.61673111  0.72306618  0.94185684
  0.65286507  0.13570702  0.49540791
  0.77824165  0.97002136  0.25264029
  0.50885468  0.15333083  0.53640079
  0.80561157  0.98426727  0.53918976
  0.08967102  0.60566288  0.97902267
  0.93277824  0.38865696  0.72178314
  0.27226549  0.26329878  0.83430573
  0.55492023  0.80041153  0.24687571
  0.71071899  0.68226311  0.81386131
  0.18180616  0.06052659  0.39742828
  0.63586143  0.22080404  0.55057083
  0.18629175  0.07291313  0.34054291
  0.18855087  0.63296158  0.17787340
  0.13131509  0.47609219  0.01487209
  0.59775993  0.95532639  0.28483118
  0.99645432  0.85583618  0.96602631
  0.03120429  0.28877497  0.01780017
  0.42494003  0.51064175  0.21419088
  0.42630390  0.23906086  0.78429054
  0.50645950  0.35160713  0.37788815
  0.84517906  0.98596596  0.56170162
  0.90414589  0.11911703  0.56779930
  0.80265923  0.05852118  0.07469226
  0.64086784  0.36083294  0.89675919
  0.94034554  0.11682813  0.93617126
  0.80684692  0.19705938  0.24183050
  0.71721046  0.78631546  0.15257367
  0.69311737  0.73308372  0.72040054
  0.84144051  0.86678055  0.16881887
  0.68108299  0.95761032  0.61724316
  0.46079422  0.40076942  0.79331108
  0.07045966  0.27759184  0.55729252
  0.35945114  0.99870834  0.70807838
  0.46502670  0.27179375  0.42199245
  0.23277296  0.43082268  0.64821442
  0.85422478  0.19839802  0.69206627
  0.58088776  0.55691921  0.01096906
  0.50524429  0.82140373  0.29433746
  0.61664127  0.99879482  0.26201246
  0.78555626  0.61949696  0.89579826
