992
Lattice="19.70289421081543 0.0 0.0 0.0 21.199705123901367 0.0 0.0 0.0 24.720983505249023" Properties=species:S:1:pos:R:3:momenta:R:3:forces:R:3 energy=-6016.2529296875 free_energy=-6016.2529296875 stress="-0.010143442079424858 0.0016166771529242396 0.001047256519086659 0.0016166771529242396 -0.011378085240721703 -0.0016907043755054474 0.001047256519086659 -0.0016907043755054474 -0.009847993031144142" pbc="T T T"
Li       4.41309970      17.16351502       4.54599009       0.02238146      -0.14414026      -0.81803520      -0.06778311      -0.59950650      -0.10515003
Li      -0.22613481     -18.59360569      -5.22521788       0.19932449       0.92929510       0.74340105       0.27762824      -0.56774068       0.54517782
Li      23.91903432      -6.51566379       0.62097278       0.16938490      -0.88198566      -0.42824839       0.59541202      -0.20520797      -0.84273398
Li      15.64098996      12.00723288     -14.03753648       1.03542024       0.75572975      -0.30297148       0.21147713      -0.04163164       0.33491433
Li      -1.94492487       7.18413869       7.72029234       1.14500031       0.27756281       0.52106207      -0.58024490      -0.30681789       0.16573183
Li      25.27802567       5.47260242       6.77628751       0.46761125       0.46806892       0.89890660       0.04923727       0.27729547       0.04394940
Li      16.86251276      19.08302322       1.65541328       0.10062211      -0.84758177       0.03671045      -0.08240910       0.45704937      -0.33592460
Li      18.78041505      15.08106651      12.54728052       0.22509110       0.56146247      -0.14280942       0.61252844       1.13980746       0.77508378
Li      -1.04817800       9.49709280       4.11033051      -0.29786790       0.10709082      -0.13603783      -0.14765866       0.15515000      -0.00028123
Li     -10.70944295      11.08133030     -19.54026733      -0.27581940      -0.08834174       0.08510003       0.02208450      -0.23598370      -0.14739063
Li       5.57796416      13.56752212      -1.51064292      -0.53619672       0.72723885       0.17169614       0.12323037       0.17151406       0.16219795
Li       9.45384701      10.35355048       0.34192395      -0.32036798      -0.94886055      -0.10291929      -0.08364441       0.08361716       0.49169740
Li      24.21223490      17.94852110      -7.25423399      -0.62010252       0.13391921       0.96319497       0.43216422       0.70035815       0.28404242
Li      10.47108466       3.87121224      22.44420330       0.05770259       0.55148348       1.12439230      -0.26733485       0.25631136       0.13839087
Li      15.61983678      -9.70919127      16.56151316       0.08648927      -0.03450672      -0.51558827      -0.32543492       0.01780334      -0.73595035
Li      12.72232182      -5.97320885      26.90148929      -0.92363379      -0.93778159       0.09718688       0.47906998      -0.78201890       0.16660005
Li      -4.67296141       3.67115795     -16.77177421      -0.46458412      -0.94037834       0.36674372       0.08581457      -0.55399662       0.10712382
Li      19.69570940     -10.17437112      19.37964652      -0.23819771       0.94540150      -0.61600892       0.20173302       0.10911794       1.04805863
Li      10.54355346      -3.56794895       6.06459287       0.23313114      -0.23859510       0.01074761       0.10856787       0.41060579      -0.27010670
Li      -8.53155926      -0.28477072      31.84475627      -0.71206163       0.67846229      -0.58115901       0.54258347      -0.30782300      -0.14215355
Li      11.05172843       8.09778681     -25.97632298      -0.25439353      -0.40741053       0.62648095      -0.25245968      -0.65976346      -0.67124236
Li       7.92958939       5.03439656      16.69901193      -0.72723050       0.33468862       0.48366508       0.29894602       0.32755166      -0.25836840
Li      35.24971393      14.93158731      22.69710154      -0.03752912       0.31658642      -0.48096023       0.03220634       0.11825283      -0.24775505
Li      12.98837953      11.40094900      23.34018210      -0.04048906      -0.46781012       0.62037136       0.21308681      -0.10937627       0.08894986
Li      -7.42569259      19.63786885      13.66381631      -0.80679260       0.53777007       0.28279388      -0.02619399       0.46309376      -0.81192380
Li      -9.25165826      16.24471007      22.41638102       0.55423488       0.05179362       0.15019356       0.62767386       0.26403928       0.41169408
Li       3.08599206       6.63823429       2.49404815       0.62783249       0.25142621      -0.43837513       0.15267785      -0.39499819       0.40888685
Li       1.96983733      29.70825544       5.56108985       0.16360648       0.41694928       0.50054357      -0.59486681      -0.18493249       0.27062690
Li       5.47807996      19.58346144       6.20438814      -0.06807768      -0.02389349      -0.57578612       0.48202875      -0.17923138       0.73060346
Li      26.46615747       5.93049419      22.32281065      -0.67676405       0.13911813       0.34398614       1.02094996       0.48645550       0.19968182
Li     -11.63784651       7.33264097      15.69581688       1.05764135       0.20522734       0.78865544       0.16550326       0.13112438       0.73559570
Li       9.85188976       0.18788397      17.25442358      -0.02074214       0.56497265       0.46211677       0.36334854      -0.47824576      -0.24854591
Li     -13.00466677      10.89819191      12.06038956      -0.60718526       0.18328201      -0.72889647      -0.13821782      -0.02622896       0.91912282
Li      28.27920163      16.27817614      38.26214719       0.13307540       0.60728669      -1.24316776      -0.00669583      -0.57167339      -0.31256261
Li      18.17503187      25.05803746     -10.16058946      -0.46408296      -0.73034677       0.00852178      -0.00243267       0.01142067      -0.18977134
Li      -2.05712345      11.40063100      -6.78690592       0.28229942       0.40709762      -0.56771082       0.10339132       0.02150878      -1.38686049
Li      20.83528000     -15.14384543      -3.29686915      -0.62084507       0.04436076       0.12320242       0.18941706      -0.21629030      -0.55919600
Li      22.75709451      12.73551042       9.95701061      -0.17733099       0.55782677      -0.10444772       0.67543042       0.14419881      -0.11317516
Li       4.10599213      -3.92657111      -4.57570149      -0.30298402      -1.10018475       0.02301112      -0.08110740       0.19201598      -0.03799054
Li      23.30459743      19.86700194      24.94323723      -0.89781167       0.37931834      -0.49324559       0.12090605      -0.18303119       0.51697469
Li      -9.63915889      20.54283487      -4.58054465       0.19875208      -0.00313807      -0.88039518       0.38923645       0.46723273       0.12560187
Li     -14.77916160       0.53318545      11.48226018       0.24777107       0.31622772       0.67446281      -0.71830547      -0.18998462       0.07544182
Li      11.39569439      12.57801411      -4.90739723       0.07824263      -0.35520566       0.57602305      -0.70207268      -1.38795948      -1.02912700
Li       3.86201472       0.05509335      23.13727581      -0.43375070      -0.42656233       0.25694310       0.52781224       0.08465630      -0.36387944
Li      28.59901120      -6.57408801      -5.70014798      -0.40843602      -0.09121873       0.06218217      -0.08511986      -0.37474918       0.42707539
Li      24.02432601       2.62861347       9.53771669       0.02337287      -0.43897558      -0.15484984      -0.34920248       0.13738018       0.15796368
Li     -13.07019341      -0.08276005      -2.78975415      -0.22667575      -0.02518957      -0.66213370       0.60188097      -0.57409710       0.43616971
Li       6.27204382       7.39650099      -4.49620218      -0.62916876       0.36904778      -0.94874791       0.54347014       0.90769792      -0.16965908
Li     -11.44120759     -16.25029326      11.35692058       0.11811754      -0.79079894      -0.78450496       0.22231710      -0.21977450       0.22376196
Li     -11.96925738      -7.76433372       0.35278346      -0.16261843      -0.50592358       0.41404654      -0.30963144       0.48882607       0.65017039
Li      11.51030526      -3.86004425      27.99470067       0.09672623       0.37545733      -0.23423096       0.67154604       0.39343908       0.64863646
Li       8.19398911      12.12463341      16.13663903       0.63006238      -0.64678731       0.25223829       0.17473382      -0.12061950      -0.03569292
Li      41.71701604       1.86731128      14.61554359       0.03507341       0.21072502      -0.61555922      -0.24251011      -0.54546452      -0.67079318
Li      39.90146566      31.53912068      15.04167776       0.49189839      -0.11301454       0.27207903       0.49908626      -0.65932131       0.24568592
Li       7.01668853       9.48120827       5.75392094      -0.16202959       0.34098711      -0.26413937       0.00928718      -0.21778129       0.96919703
Li      10.10966387      14.08501164      27.66356701      -0.34496802       0.40770516      -0.53701375      -0.15049538       0.12421844      -0.51999521
Li      -6.05228828     -15.91835540      18.55786693      -0.34063890      -0.59086595       0.64138440      -0.01297284       0.56564713       0.36373508
Li       6.24622540      18.14711627      52.75443756      -0.55775045      -1.20183244       0.41952975      -0.74701989       0.03299893       0.12812430
Li      -6.87452286      -6.58681956      -0.42476653      -0.09252409      -0.84748373       0.01294582       0.15314734      -0.50809622      -0.36065024
Li      -2.32964721      -4.58015198      17.70175617      -0.07852135       0.45820828      -0.15955345       0.15696171      -0.09778663       1.23478198
Li      11.37252332     -12.25832558       4.98989414      -0.02300331       1.70115663       0.48140058       0.18504989       0.14018101      -0.21873519
Li      20.85853118     -22.59093358      -0.04615383      -0.56591973       0.12314700       0.52084200      -0.12460734      -0.03237170       0.29921028
Li      -0.82354176       7.63192597      -0.70671869      -0.36075254      -0.37819225       0.76214279       0.18868332       0.46331716       0.18043669
Li      23.47286556       3.14949516      17.09128060       0.19998624      -0.36290837       0.07156569      -0.21350425      -0.59377235       0.11487924
Li      14.34477627      16.61652988      18.32843288      -0.07774283       0.69794891      -0.49040030       0.50642622       0.16066828      -0.08309232
Li      17.60599795     -14.00845801       2.10823860      -0.51245881      -1.07421872      -0.38934342      -0.21238030       0.02172467       0.15632920
Li      -5.72356122       3.71985016       5.30734014      -0.01187781      -1.00913317      -0.29902008       0.05953920       0.19573674       0.62096691
Li       2.89502000       7.30664646      32.81830610      -0.19899043       0.16943600       0.29348128      -0.18101172       0.14510670       0.01676618
Li      12.23944306       8.11543762      19.55558992      -0.12730424       0.89562045      -0.06481763      -0.38565701       0.27550051      -0.22110078
Li       6.17770284     -22.44612346      15.85365044      -0.12963849      -0.68477810      -0.16358707       0.24518548       0.74072164      -0.04761294
Li      19.47668628       2.99935295      -0.18221363       0.39831880       0.10363603       0.15853090       0.27237669      -0.31068388       0.90664309
Li      35.27669233      20.43925227      20.74872418      -0.45162870       0.35444956       0.40055290       0.05164511       0.11466119       0.02864726
Li      -3.62865544       1.75930313       9.86580871      -0.51123440      -0.41602765      -0.71474787      -0.14757277       0.51724416      -0.54010767
Li      14.59808938      27.78877484      23.50637694       0.28485327       0.10718308      -0.46542308       0.67944229       0.39157724       0.30939561
Li       0.95198549      -8.42578706      11.15517701       0.68253341       1.26898659       0.02513953       0.14860629       0.29209393      -0.29007041
Li      -3.34176912      33.30390012      27.86244297      -0.06815336       0.51605365      -0.12700071      -0.14730486      -0.09839094      -0.51965475
Li       6.35677527      -1.90799860       8.81575616      -1.69178909       0.10370648      -0.29296217      -0.11447437      -0.00482661       0.17567745
Li      25.57798911      -5.77814341      34.78587120       0.54966125       0.33693281       0.58045520      -0.32359055       0.43693608      -0.02002217
Li       5.32909542       8.22162086      13.48843605      -0.13373143      -0.43694880       0.64615955       0.13133711       0.04164942       0.01689126
Li       0.76573311       0.33309407      23.12603851      -0.73021931      -0.77533743       1.21125670      -0.05950336       0.12724270       0.27765101
Li      -1.88535049       4.77831442      22.02483111      -0.84325284      -0.24859182      -0.87493831       0.44348738      -0.64245301      -0.25758848
Li     -10.48755607      12.44224315      21.40218734      -0.78942872       0.52900271      -0.57027151      -0.44788411      -0.50085437      -0.11048276
Li     -13.53867943      35.45570447      17.43981867      -0.74062857      -0.83143597      -0.14422576      -0.17459604      -0.63355106       0.43985301
Li      -2.39970789      14.95807441       1.88037132      -0.68155943       0.66731953       0.10399565       0.49770284      -0.42993364      -0.28387827
Li       6.55038224     -10.07200559      23.98142064      -0.58410154       0.28013455      -0.47057924      -0.21468827      -0.21992493       0.24923021
Li      17.91732261       2.43703854      17.10948860       0.76949700       0.00244794       0.19041295      -0.38588089       0.21820661       0.03932486
Li      17.25664061      28.65659181      21.49765263      -0.99877211      -0.43651963      -0.27497468      -0.33120638       0.45991591       0.14186651
Li     -26.18485032      16.09552373      21.25510791      -0.27127500      -0.14608096      -0.35194039      -0.66285676       0.04019561       0.40574229
Li      12.87337679      -2.92249149      -4.93702790       0.01575706      -0.71272416       0.04295600      -0.39216733      -0.24301341       0.36000562
Li      20.11330612      31.92457580       5.64419076       0.56932324      -0.62771325       0.57990228       0.18891281      -0.66627383       0.03061017
Li      -3.18632388       8.60457099     -15.84692391      -0.94686525       0.04127627       0.50792481       0.00678531       0.37356207       0.87183887
Li       3.02209422      32.00515763      41.83928269       0.42283062       0.34037442       0.32486903      -0.03916606       0.07041062      -0.23865591
Li     -10.62015451      12.28134225      12.72059879       0.97800821      -0.97086114       0.20890670       0.58888292      -0.79591036      -0.01306408
Li      16.24325778      -6.56686720      19.88984416       0.60084640      -0.12267352      -1.16018096      -0.35250193      -0.01014863       0.44708210
Li      23.56109047      12.90780707      39.12477376      -0.57319113      -0.09613362       0.29112542       0.38160390      -0.45957986      -0.07656223
Li      23.66853235      43.53226361      26.95363341      -0.11063616       0.07882085       0.40077137       0.56634843       0.23439477      -0.47197312
Li      -0.63443963      15.42536193       4.15027308       0.15613959      -0.51856863      -0.29345861      -0.14336272      -0.46772197       0.29776356
Li      -2.72222598       0.33657514      15.96479053       0.53206457      -0.50122341       0.07315731      -0.82163477      -0.04373114      -0.09231574
Li       6.55997040      31.54074583      -4.14271079       0.73627087      -0.25113737      -0.26771409      -0.12360267       0.11939126      -0.36529657
Li       8.48394078       4.01354612       4.38680225      -0.34359990       0.23679309       0.36381259       0.08589134      -0.31535226       0.30669907
Li      24.21964171      16.73644306      -1.92496120       0.39889708      -0.52610840       0.40287949      -0.55077523      -0.23579361       0.14529535
Li      24.94901801      29.31468509       7.94112043      -1.27282212      -0.03390346       0.49802061       0.39993829      -0.26475734       0.38755363
Li       2.29328362      19.73940921      -9.18170826       0.09952900       0.04534610       0.29534855       0.33280689       0.20642343      -0.12048553
Li       0.03400994      22.23012370       8.02605514      -0.38223348       0.07116180       0.95652911      -0.20222951      -0.00628751       0.44661999
Li     -10.44545746       7.17892928     -11.37691888      -0.17836619       1.39370256       0.13472000       0.29828492      -0.36084118      -0.55974865
Li      -0.24794676      38.84688890      26.76023640       0.12458227       0.27744042      -0.67869503      -0.30443087       0.14806935      -0.06623456
Li     -15.62842414      27.56667137      24.26369140       1.49161827      -0.54339495       0.08765938      -0.25797376       0.21442598      -0.08198075
Li     -19.13487015      32.25064568       3.09956146      -0.07827932       1.02428119      -0.43105047      -0.33514932      -0.05883488      -0.56479686
Li       8.13049959      -5.50770540      29.88638154      -0.59515269      -0.00779680      -1.01717579      -0.40463948       0.86235392       0.36465615
Li      28.16891234       5.26960890      26.82036661      -0.36763867       0.52931122       0.00660441      -0.13312739       0.51127642       0.25399137
Li      16.32132422       9.49708562      11.84223774       0.35294085      -0.61700857      -0.13357907       0.44396758      -0.01601287      -0.29705679
Li       3.49648974      31.91906147      12.47974257      -0.59030209      -0.10447958       0.82773286       0.21527398       0.12588845      -0.11856666
Li       7.61153764      -7.13149989      14.10187961       0.12846405      -0.29954945       0.08044398      -0.32812607      -0.01569810       0.12434772
Li      -4.12320940      -7.22078234       9.18922490      -0.15641085       0.31014401       0.05957535      -0.09618445       0.77459830       0.12093979
Li      -4.49070170      29.67713304      14.36267972      -0.63138412       0.04785338       0.59253831       0.18136185       0.89464360       0.46605915
Li     -12.39584667      12.14381823       9.81797620       0.09644653      -0.46090385       0.06683742      -0.49821979       0.35539022       0.08146220
Li      -1.60474622       8.10811042      13.64360760       0.52261601       0.41476351      -0.11507336       0.24948342       0.58744299      -0.18686745
Li      12.81930809       4.18256858      16.71781164       0.91759497      -0.35380044      -0.26762476      -1.13478041       0.26164395      -0.58857739
Li      10.86031000       5.95144974      16.72655903       0.62763075      -0.14953787       0.43713199      -0.58086014      -0.26280576       0.08320950
Li      12.31634689       5.49246964      24.04493294       0.22233698      -0.97043864       1.08437995      -0.52161467      -0.22526009       0.70901352
Li      10.10528616     -14.93044917      -3.26900984      -0.24456732      -0.30667513      -0.22184533       0.03281583       0.32726303       0.50777125
Li      24.86707018      16.26324314      12.78205879      -0.52736439       0.97391524       0.20084109      -0.02767918       0.16051993      -0.10120955
Li       6.09951194       9.05981337       3.35941205       0.03574828       0.59514511       0.68441005       0.24461582      -0.13473110      -0.74555844
Li       1.88244780      19.14055977      27.28943667      -0.37214455       0.23533984      -0.09226078       0.39104271       0.60059834       0.10102563
Li      15.55989721     -13.80258057      -8.07836361      -0.10918572      -0.44996566       0.14991935      -0.29338202      -0.18719053       0.34436834
Li      22.70804174      19.16621509      30.25088843      -0.53690930      -0.48434570       0.43449456      -0.07073796      -0.38907018      -0.52780634
Li      18.67227166      29.23490817     -13.83965064       0.71440926       0.22316065       0.82513442      -0.85163605       0.63440692      -0.69000655
Li       7.70432820      38.79448650      15.86775594       0.59832146       0.20707074       0.04408543       0.11826073      -0.65514469      -0.42562887
Li      13.36118705       3.59367935       2.04628593      -0.33624602       0.48117160       0.46372817      -1.04723573      -0.30405802       0.21997321
Li      -7.67119018      -5.65457722       7.95675708       0.26281951      -1.12901415       0.24964059       0.03093440      -0.19358520      -0.08758084
Li      -5.91985532       1.23684669       5.08319629       1.21691024      -1.40760398       0.13486392      -0.05942983      -0.45248494       0.01010228
Li       3.13746192      37.23755762     -15.20643846       0.94509328      -0.83141525      -0.23971629      -0.17201604      -0.04131576       0.29689229
Li       1.30702148      14.02952977     -19.33693285       0.40071997       0.50057482      -0.04816838      -0.53932214      -0.00720450       0.08826249
Li      -7.57688373      45.25758110      -4.30338310       0.26638611      -0.46679637      -0.03975175       0.25556132       0.14679734       0.27063826
Li       0.24691574      14.77988778      -6.03979198       0.19721649      -0.47348806      -0.38681501      -0.11542889       0.41454637       0.50192642
Li      15.14486637      26.12994243      25.58702529      -0.40702327       0.88891979      -0.43170722      -0.83733916       0.12337627       0.85265946
Li      12.82655673       9.52460544       0.08287611      -0.02141590       0.00112217      -0.12587376       0.55419463      -0.14733042       0.40083933
Li      18.39115429      18.18510424      10.95374447       1.32501959      -0.31123617      -0.17011815       0.15459637       0.19394499       0.54839128
Li       0.46393582      41.82751194      12.98630326       0.01515154      -0.06751198      -0.23170196       0.71351415      -0.66671473      -1.05614316
Li       2.94848643      14.54960287      36.77586665      -0.26554787       0.04753206       0.77236568       0.31507117       0.06820565       1.06908381
Li       2.26801927      -5.12793532       6.73859516       0.46469215      -0.17086539      -0.09125439       0.08914991       0.24463075       0.22524166
Li       8.73577746      -2.94614549      21.82063297      -0.42127611       0.50658248       0.68820572      -0.36514688       0.01779923       0.17171219
Li      30.42770887       9.76228937      17.53165122       0.05119964       0.04766113       0.59541763      -0.71123779      -0.41588148      -0.09723344
Li      29.86599821       7.75091876      10.47335212       0.57516076      -0.32052187      -0.75696497       0.08811624      -0.04022753      -0.34453672
Li     -29.20405312      10.75929299     -10.05346958       0.09214430       0.33225776      -0.41033478       0.16704045       0.14421970      -0.17753215
Li      22.20059994      11.22770262      29.20878448       0.92029365      -0.59034780       0.35623787       0.39509532      -0.47060424      -0.18635611
Li      -5.22348975      37.46903947      -9.51151696       0.91756359      -0.09065397      -1.03081160       0.17872587       0.17895421       0.13101614
Li       7.18947350      21.45029574      29.13424581       0.63695965       1.36576438      -0.06183961      -0.09476379       0.09879895      -0.13491337
Li      10.32127716     -16.75407150      19.78656292       0.06092023       0.83891512      -1.04762149       0.33846763       0.26337877      -0.29377887
Li      27.01526253       9.52067439       8.82754415      -0.27799188      -0.15644431      -0.29927421       0.69556713      -0.14379068      -0.47718590
Li      18.31814689      13.89646131     -26.47418669       0.69952630      -0.31969566      -0.15941687       0.19388521       0.09438434       0.28773767
Li      -7.12716678       6.67530246      11.78768446       0.54767913      -0.57808972       0.13732865      -0.71647179       0.53669387      -0.62072158
Li       9.01584711      10.78573597      10.56887844       1.06705020       0.47875304      -0.37972999       0.08811949      -0.40532738      -0.14137796
Li      19.68970911       0.20892591      19.25610584       0.00847572       0.13226232      -0.05209697      -0.10296122      -0.01661266       0.22479762
Li       7.32458700      30.47384261      17.65339331      -0.44753559      -0.09381641      -0.91747405       0.36466241      -0.15560982       0.11931939
Li      -5.11413525      22.66959401      40.85468870      -0.03038434       0.22606456      -0.41477019       0.35109988       0.51165754      -0.22282915
Li      37.67833768      27.66742204      16.48376006       0.04039240       0.83456728      -0.39232126       0.78761846      -0.79080927       0.80617523
Li       0.44336839       8.57873606       2.82387875       0.44130723       0.27141912       0.20353201       0.04112361      -0.22507581       0.04878248
Li       1.13835672      -4.34264476      22.44069631       0.20271850      -0.53189380       0.19307127      -0.47805005      -0.23639961      -0.50256324
Li      37.04313699      31.45828852       6.08974782      -0.66251517      -0.35684647       0.26032666       0.58543336       0.06835812       0.41452813
Li      -9.41726627      19.01551864      15.95502835       0.26400029       0.71384601       1.02539679       0.02722447      -0.22360708      -0.23903847
Li       5.45681318      12.52818283      26.51524173      -0.26772885      -0.52458524       0.23854125       0.46446145       0.15488172       0.84669101
Li      12.50112995      21.80677552       2.62055047       0.68213683       1.08424434       0.01283759      -0.08940084       1.11892557       0.36389643
Li     -18.67509286       2.80628229      34.31107524       0.00781109       0.34835080       0.21697036       0.05497022      -0.56158924       0.21761207
Li     -23.32968607       0.52800752       2.07224454       0.11192055      -1.51229075      -0.11152997      -0.76063436      -0.08592603       0.19873998
Li      17.88563670      12.27867958      15.57329517       0.44586981      -0.47137635       0.35396505       0.03266725       0.01364130      -0.61144352
Li      12.76804283     -12.22707906       7.45039328       0.46733450       0.43756126       0.00122290       0.89832568       0.19735444      -0.15429471
Li      -1.62161314      19.40824981      13.93318971      -0.58254522      -0.25912872       0.44159652      -0.50012428       0.10200557       0.09747010
Li       0.41839537       2.56102659       3.14939524      -0.34592024       0.08806305       0.44568547      -0.11907825       0.57910645      -0.00387670
Li      -8.56549155      19.78265668      27.33583809       1.10990659       1.19692504       0.55169578      -0.11551404      -0.22511572       0.05879122
Li      -8.25503014      33.35840968       5.78638808      -0.03014244       0.08183634      -0.06691946       0.24385250       0.11639509      -0.11779351
Li      -9.10489715      23.06099551      25.05765784       0.33745566      -0.15111140      -0.16224660       0.15376951       0.28549334       0.05443563
Li      21.92560685       4.22815571      19.77922870       0.00727323       0.28872662       0.75852939       0.11693002      -0.09771678       0.22208180
Li       2.47480270      -1.67299419      22.13378734      -0.14924995       0.02159928      -0.02056478       0.01939078      -0.15474585      -0.07067673
Li       5.43434555       2.75756737      13.86510005       0.39983347       0.77663753      -0.16825396       0.60036159      -0.08417718       0.01238978
Li      13.65893495      23.48998281      11.33066980       0.15190543      -0.82226905      -1.13874530      -0.02070999      -0.28992468      -0.52425730
Li      -4.71912837     -11.32287252      17.84300166      -0.51525864      -0.42059016       0.68929921      -0.02728095      -0.55747020       0.68853307
Li      -6.79086784      21.58317932      21.91848552      -0.55011552       0.05348936       0.67392037       0.18607348      -0.08803560      -0.11681954
Li     -10.47824033      42.45129106       8.64481851      -0.06367029      -0.93213905      -0.07458688      -0.09446508       0.54823947       0.48508358
Li       8.40139714      -2.64547745       1.21635259      -0.21851291      -0.05293529      -0.50091805      -1.23852062      -0.10873162      -0.19952986
Li      -7.58670088      -0.40901855      24.58461714       0.51001769      -0.00669307       1.01103182      -0.02716541      -0.73576373       0.38572985
Li      33.24434726      13.84809802      30.48788375       0.33521004       0.42442818       0.04078042      -0.52511811       0.31571180       0.07105277
Li     -10.05829208      19.86023578     -13.27336563       0.89924444      -0.28822973       0.13343656       0.63614649       0.16629915       0.39307171
Li      12.85932813      27.80850270      29.82769104      -0.66348104       0.75521667       0.10834143       0.29711530      -0.22594491      -0.26977974
Li      16.17998763       1.88899659      31.20744538      -0.07525734       0.06338910      -0.39692815      -0.12144608       0.23689991      -0.06775863
Li      -4.32443401       8.70799379       6.09417767       0.25626794       0.15043277      -0.00066211       0.09704922       0.47606027      -0.28107515
Li       3.36798296      22.01795530     -16.55146398      -0.28793764       0.59610736       0.07781281      -0.00719208      -0.31124449      -0.21872482
Li     -14.28303743      32.27682197       4.51630691       0.73379651      -0.06291849      -0.61626423      -0.07669627       0.88128686       0.30076781
Li      47.09829900       7.19453384       6.52508841       0.63799643       0.21606473      -0.77807141       0.46832371       0.56273913       0.48904836