Li P N O
           1
    19.702894    0.000000    0.000000
     0.000000   21.199705    0.000000
     0.000000    0.000000   24.720984
 Li               P                N                O               
              376              128               40              448
Direct configuration=     1
  0.22398231  0.80961103  0.18389196
  0.98852276  0.12293093  0.78863228
  0.21398583  0.69265309  0.02511926
  0.79384225  0.56638679  0.43216108
  0.90128735  0.33887918  0.31229714
  0.28296003  0.25814521  0.27411076
  0.85583938  0.90015512  0.06696389
  0.95318053  0.71138096  0.50755588
  0.94680081  0.44798231  0.16626889
  0.45645331  0.52271153  0.20956756
  0.28310380  0.63998636  0.93889228
  0.47982022  0.48838182  0.01383132
  0.22886692  0.84664013  0.70655561
  0.53144906  0.18260689  0.90790090
  0.79276865  0.54201291  0.66993747
  0.64570827  0.71824095  0.08820465
  0.76282868  0.17317024  0.32155716
  0.99963534  0.52007016  0.78393509
  0.53512714  0.83169818  0.24532167
  0.56698954  0.98656723  0.28816704
  0.56091904  0.38197639  0.94921968
  0.40245810  0.23747484  0.67549950
  0.78906274  0.70432995  0.91813101
  0.65921176  0.53778809  0.94414456
  0.62311666  0.92632745  0.55272139
  0.53044166  0.76627057  0.90677545
  0.15662633  0.31312861  0.10088790
  0.09997705  0.40135230  0.22495423
  0.27803428  0.92376103  0.25097659
  0.34326243  0.27974418  0.90299039
  0.40933315  0.34588410  0.63491879
  0.50002247  0.00886257  0.69796671
  0.33996160  0.51407281  0.48786043
  0.43528161  0.76784918  0.54775991
  0.92245493  0.18199934  0.58898927
  0.89559283  0.53777309  0.72545971
  0.05747307  0.28565773  0.86663681
  0.15501277  0.60073998  0.40277567
  0.20839538  0.81478181  0.81490617
  0.18280072  0.93713577  0.00899049
  0.51077447  0.96901512  0.81471026
  0.24989895  0.02515061  0.46447425
  0.57837667  0.59331081  0.80148859
  0.19601256  0.00259878  0.93593670
  0.45151321  0.68989720  0.76942066
  0.21932980  0.12399293  0.38581461
  0.33663586  0.99609617  0.88715036
  0.31833109  0.34889641  0.81812203
  0.41931335  0.23346607  0.45940408
  0.39251273  0.63375275  0.01427061
  0.58419363  0.81791991  0.13242666
  0.41587744  0.57192463  0.65275069
  0.11730397  0.08808195  0.59122015
  0.02515758  0.48771506  0.60845790
  0.35612476  0.44723303  0.23275453
  0.51310552  0.66439658  0.11903181
  0.69282237  0.24912374  0.75069291
  0.31702070  0.85600796  0.13399429
  0.65109071  0.68929664  0.98281757
  0.88176117  0.78395209  0.71606197
  0.57720065  0.42176905  0.20184853
  0.05865316  0.93437510  0.99813301
  0.95820199  0.36000152  0.97141219
  0.19134099  0.14856316  0.69136734
  0.72805427  0.78380948  0.74141196
  0.89357420  0.33921449  0.08528134
  0.70950658  0.17546707  0.21468968
  0.14693374  0.34465793  0.32754856
  0.62120026  0.38280899  0.79105226
  0.31354291  0.94120586  0.64130339
  0.98851905  0.14148088  0.99262919
  0.79043200  0.96412908  0.83931629
  0.81583135  0.08298715  0.39908642
  0.74091091  0.31080950  0.95086739
  0.04831704  0.60255169  0.45124325
  0.83039197  0.57096054  0.12707664
  0.32263155  0.90999881  0.35661025
  0.29818436  0.72744227  0.40713945
  0.27047272  0.38781770  0.54562700
  0.03886399  0.01571220  0.93548214
  0.90431099  0.22539532  0.89093669
  0.46771495  0.58690643  0.86574983
  0.31285834  0.67246215  0.70546622
  0.87820531  0.70557936  0.07606377
  0.33245787  0.52489879  0.97008360
  0.90937516  0.11495625  0.69210388
  0.87584293  0.35174483  0.86961154
  0.67101503  0.75923338  0.85980025
  0.65337491  0.86214471  0.80028999
  0.02083003  0.50589716  0.22831579
  0.83828143  0.40588164  0.35896871
  0.15338326  0.50969825  0.69246028
  0.46098505  0.57931665  0.51456686
  0.82440973  0.69023780  0.80457334
  0.19581876  0.60886729  0.58265442
  0.20127186  0.05343722  0.09031396
  0.96779967  0.72762153  0.16788463
  0.86183624  0.01587641  0.64579917
  0.33294451  0.48779172  0.83242128
  0.43059363  0.18932085  0.17745258
  0.22924284  0.78946584  0.92213250
  0.26626158  0.38278740  0.32122996
  0.11639324  0.93111716  0.62858645
  0.00172614  0.04860533  0.32466569
  0.46985162  0.33863345  0.53978696
  0.98741572  0.83242591  0.08249077
  0.20679551  0.30033277  0.98150186
  0.02882947  0.52127803  0.12538180
  0.41265509  0.74019896  0.20894792
  0.42968399  0.24856992  0.08492312
  0.82837192  0.44798197  0.47903587
  0.17746072  0.50563705  0.50482387
  0.38631571  0.66360382  0.57044169
  0.79073078  0.65939232  0.37171761
  0.77207908  0.39988424  0.58099144
  0.37086163  0.57282958  0.39715152
  0.91855277  0.38246336  0.55190392
  0.65063071  0.19729371  0.67625997
  0.55120379  0.28073267  0.67661382
  0.62510344  0.25908236  0.97265276
  0.51288334  0.29572373  0.86776376
  0.26210241  0.76714478  0.51705300
  0.30957441  0.42735563  0.13589314
  0.09554169  0.90286915  0.10389769
  0.78972648  0.34892582  0.67321836
  0.15252315  0.90407932  0.22369276
  0.94769182  0.37902428  0.44016586
  0.39102520  0.82995406  0.64187397
  0.67813322  0.16951553  0.08277526
  0.61065668  0.73327095  0.32186248
  0.69954387  0.05834264  0.20562274
  0.15923863  0.75651300  0.38487729
  0.06633652  0.66177948  0.21779274
  0.61544311  0.13482125  0.82592185
  0.01253195  0.69717422  0.75568157
  0.76866202  0.23256160  0.03503266
  0.65099861  0.44928009  0.00335246
  0.93342400  0.85779987  0.44309501
  0.02354658  0.97302329  0.52531499
  0.14964738  0.68631157  0.48763768
  0.11511097  0.75811289  0.27258605
  0.44337534  0.86102894  0.88267657
  0.54432687  0.46049175  0.70918098
  0.51581782  0.36561446  0.42366244
  0.51777851  0.50752088  0.59332243
  0.12676847  0.52961598  0.18153812
  0.73488718  0.76743211  0.61524520
  0.36489429  0.01182048  0.17852293
  0.52384574  0.20970262  0.80039546
  0.37113168  0.44909466  0.35708709
  0.92971858  0.65550258  0.92908036
  0.63826803  0.31487714  0.47682911
  0.45758999  0.50876821  0.42752662
  0.99933080  0.00985513  0.77893769
  0.37175183  0.43746540  0.71410562
  0.74043736  0.06933535  0.65263201
  0.91232503  0.30508523  0.66679224
  0.02250270  0.40466299  0.11423003
  0.05777612  0.79515542  0.90775904
  0.88008607  0.48390217  0.24633922
  0.52203640  0.89697090  0.64540427
  0.27695490  0.59096024  0.07258037
  0.63448191  0.02863579  0.10600511
  0.05216499  0.13237365  0.38793326
  0.81592593  0.02490636  0.08382533
  0.90776698  0.57919106  0.62996261
  0.64802880  0.42324297  0.30137932
  0.91769670  0.91549622  0.56361794
  0.02123522  0.12080482  0.12739765
  0.56526734  0.93315716  0.10577470
  0.58102449  0.57353178  0.23406788
  0.53789037  0.08779794  0.01361897
  0.11281148  0.19944408  0.80009878
  0.12560605  0.92108408  0.89534412
  0.27581458  0.13007574  0.56086361
  0.69324510  0.10803347  0.45834219
  0.76048552  0.46589481  0.72177556
  0.65533653  0.01808866  0.88663485
  0.46818776  0.00244724  0.34969557
  0.42640422  0.87521159  0.04920324
  0.61494485  0.98070640  0.99448378
  0.68728243  0.65322126  0.23327956
  0.48950180  0.93681660  0.46307291
  0.65266189  0.31174007  0.20657380
  0.82119852  0.08910485  0.26238689
  0.78051783  0.41076014  0.24651842
  0.17093849  0.03859724  0.33046903
  0.27507922  0.52251278  0.18269123
  0.39042541  0.33936952  0.26394939
  0.62263522  0.56495948  0.58915299
  0.04609150  0.73701093  0.43404477
  0.38608929  0.61449562  0.18020182
  0.17392913  0.38559732  0.67264389
  0.23641233  0.65276550  0.34092315
  0.99756701  0.84164486  0.22333308
  0.93436653  0.50948369  0.42241543
  0.06720621  0.19691616  0.61613147
  0.26043994  0.03369561  0.20977225
  0.86839587  0.82885679  0.94931531
  0.59700183  0.47017321  0.10063574
  0.17884858  0.65616031  0.68862877
  0.36850573  0.04566045  0.78053677
  0.65939415  0.85452889  0.64310871
  0.38408903  0.67725169  0.31062698
  0.64410216  0.69490203  0.76796617
  0.93274979  0.72882973  0.27167363
  0.85421712  0.22511437  0.24010221
  0.24939438  0.25315545  0.40604371
  0.49003719  0.59899939  0.30806439
  0.13132812  0.23630694  0.45245739
  0.98612309  0.71614183  0.63522600
  0.06546102  0.66660360  0.35915568
  0.51979551  0.85139481  0.99522724
  0.19737174  0.29672941  0.76634744
  0.18153012  0.70017173  0.77776649
  0.99360920  0.24718629  0.22616751
  0.04919374  0.25519962  0.96239405
  0.28346138  0.20819742  0.05899212
  0.53259083  0.65344561  0.69242155
  0.55503549  0.78431939  0.58705552
  0.52303695  0.13562296  0.46182773
  0.58741686  0.62621059  0.90287969
  0.27651016  0.56171263  0.72411795
  0.51306608  0.02681854  0.16925832
  0.17495124  0.35694526  0.86761680
  0.26380501  0.46279851  0.64644504
  0.67744348  0.46785303  0.63081638
  0.03658001  0.36878223  0.65281263
  0.86952076  0.84399933  0.28210462
  0.23101823  0.44063357  0.02802800
  0.67561605  0.29561255  0.59577950
  0.74736383  0.36435772  0.81541973
  0.42475181  0.41527912  0.92340110
  0.24565080  0.24595612  0.63488867
  0.92540799  0.73671300  0.86384921
  0.14913500  0.80645387  0.61449439
  0.76928942  0.83283252  0.37852999
  0.43488117  0.16739382  0.55927693
  0.02770728  0.52067763  0.99862543
  0.10016619  0.03026610  0.82986685
  0.73528090  0.94440526  0.72494675
  0.18352959  0.66038689  0.14273265
  0.86825930  0.21491604  0.50133714
  0.92800991  0.10254508  0.45980909
  0.52080390  0.54240502  0.13108453
  0.54221049  0.20038716  0.06462069
  0.99254346  0.23878121  0.41773540
  0.76454220  0.46488354  0.10240741
  0.22107066  0.18981880  0.96814365
  0.67016413  0.56883131  0.33004551
  0.87526023  0.09365599  0.87293759
  0.37216097  0.20096183  0.80163639
  0.89734339  0.20517620  0.13498272
  0.88912238  0.76577974  0.58845286
  0.30164997  0.11025954  0.85386745
  0.01258291  0.26662224  0.08084141
  0.13004634  0.33458427  0.57661858
  0.36552302  0.97400577  0.43719777
  0.18454475  0.58378771  0.79221920
  0.72853028  0.11748844  0.74550248
  0.39925313  0.36322258  0.03024778
  0.59523869  0.49467200  0.39113331
  0.76253588  0.97092326  0.57257152
  0.46274723  0.79244259  0.11062072
  0.71450088  0.45675011  0.44514400
  0.69491458  0.50974591  0.82411005
  0.81963177  0.69343869  0.18605625
  0.74452064  0.94017870  0.28791491
  0.56492590  0.33469646  0.07041630
  0.26475405  0.86669675  0.57314840
  0.60066186  0.69759264  0.51821762
  0.95368259  0.93411196  0.14636896
  0.91469012  0.59694729  0.82591558
  0.49549248  0.97244925  0.91422848
  0.79898419  0.93057548  0.17981786
  0.15531255  0.91416755  0.52215765
  0.22685023  0.13242078  0.28037230
  0.80191704  0.60257559  0.27745169
  0.09864060  0.68295755  0.96648923
  0.02279681  0.47781886  0.49952704
  0.87982917  0.11050898  0.04021346
  0.50691908  0.60942543  0.98552881
  0.71495760  0.91794772  0.44442041
  0.92397788  0.47717951  0.92773935
  0.88789292  0.62134788  0.50462578
  0.19964012  0.91446926  0.36375974
  0.73436738  0.91159097  0.94353485
  0.20821497  0.48541869  0.29647327
  0.98444770  0.85352608  0.66151879
  0.17575371  0.11339724  0.88776960
  0.36951380  0.14659275  0.36118362
  0.35061457  0.31571949  0.18051893
  0.43068408  0.97062142  0.25153247
  0.23559308  0.24734376  0.50659413
  0.51819801  0.02933602  0.56164693
  0.17309685  0.25465737  0.21215281
  0.27121565  0.49335973  0.40300476
  0.74446773  0.10776625  0.84672961
  0.31735901  0.64654762  0.80793779
  0.95805759  0.07248551  0.56568340
  0.08563095  0.73595940  0.06485706
  0.71110270  0.60242661  0.12553491
  0.67295350  0.80944536  0.99903681
  0.80006338  0.16582517  0.95853583
  0.08461962  0.86117535  0.43293802
  0.39241958  0.18031515  0.96702183
  0.53297840  0.77892588  0.45346502
  0.09172157  0.36936768  0.78507249
  0.23168115  0.80485020  0.07344248
  0.63826206  0.55928935  0.49114630
  0.70528728  0.82362954  0.20782159
  0.33344458  0.90301517  0.78867929
  0.15328376  0.43121456  0.13398416
  0.01136713  0.29186643  0.32096046
  0.63644231  0.96455592  0.38622681
  0.63706207  0.82412474  0.39733140
  0.31188039  0.95728545  0.02133077
  0.48982168  0.44196838  0.81344466
  0.35449511  0.11296160  0.25278050
  0.05340477  0.94319059  0.28954573
  0.30856482  0.16726646  0.45672955
  0.73815528  0.21998681  0.53391455
  0.34377805  0.40014217  0.44873489
  0.81301373  0.94967053  0.36514831
  0.48004474  0.73200700  0.35349175
  0.96768338  0.94628016  0.38415432
  0.03785994  0.80651910  0.79783584
  0.12187716  0.08093102  0.99092087
  0.40986918  0.82418453  0.42890725
  0.04204582  0.44465566  0.71855153
  0.56711825  0.32742399  0.28036720
  0.37822468  0.75695326  0.99639498
  0.08007231  0.90512915  0.72886212
  0.16330031  0.14396652  0.15629878
  0.81215907  0.39023971  0.00538581
  0.08886255  0.56075896  0.89754094
  0.66137004  0.11764701  0.55928900
  0.39606215  0.81605116  0.29273253
  0.12161478  0.44402842  0.92774497
  0.68269583  0.70253117  0.42604217
  0.83882292  0.26531504  0.39236933
  0.80194468  0.86549634  0.52133135
  0.91531864  0.50028092  0.54078262
  0.67878575  0.29035426  0.37602842
  0.40287736  0.03493885  0.97360556
  0.83494581  0.30292198  0.57149708
  0.44689621  0.23923546  0.27945848
  0.97298176  0.61725278  0.05058253
  0.89901103  0.07073002  0.17465258
  0.08319434  0.02566243  0.11918774
  0.91915298  0.92699554  0.73141451
  0.65574690  0.87041175  0.30912803
  0.83373414  0.23960845  0.76222258
  0.23549045  0.53033630  0.88842700
  0.75941085  0.27907394  0.15808312
  0.51167374  0.10571950  0.76022356
  0.16835274  0.12666497  0.48757243
  0.78313316  0.66331418  0.56562886
  0.87017284  0.77550235  0.37167491
  0.01478301  0.14959682  0.26309487
  0.55655902  0.38262068  0.60036932
  0.76322388  0.78360030  0.09003724
  0.80031436  0.58421954  0.89932165
  0.39378429  0.03173741  0.57506104
  0.93003376  0.36822120  0.76514777
  0.26417612  0.68147152  0.21976669
  0.33885515  0.06009376  0.08465267
  0.60138196  0.20162503  0.28614290
  0.58626585  0.10958497  0.37562926
  0.92371097  0.95322868  0.93759682
  0.54469393  0.12812445  0.65544330
  0.77982086  0.54599771  0.01710724
  0.34839942  0.77684672  0.84669275
  0.00783518  0.54926420  0.32499870
  0.68040817  0.64469625  0.66341069
  0.72071373  0.08274113  0.04037735
  0.22532396  0.38305808  0.21854320
  0.10357712  0.78680738  0.70700401
  0.12302021  0.81778906  0.99281115
  0.04177830  0.59622231  0.68746405
  0.68839262  0.51636704  0.19991526
  0.45130885  0.10246169  0.86468812
  0.61038175  0.57358727  0.04677247
  0.44551697  0.89308644  0.16949322
  0.48373956  0.98710238  0.04074192
  0.81582943  0.09069375  0.52611110
  0.12923216  0.59080478  0.06190333
  0.99666592  0.29126791  0.52523020
  0.31260809  0.01975040  0.32105212
  0.70876519  0.06763895  0.32920445
  0.49934786  0.29267402  0.17118102
  0.42086856  0.89508012  0.55875223
  0.96634162  0.99812170  0.05901053
  0.46168279  0.32916127  0.76428564
  0.92026835  0.60669494  0.19084592
  0.21123514  0.45541531  0.77177090
  0.78105424  0.13655205  0.13653792
  0.64152552  0.94289450  0.20366444
  0.33206158  0.70970128  0.11799618
  0.77180312  0.21995939  0.85979636
  0.38117561  0.28886531  0.37453926
  0.29319938  0.08596262  0.66625406
  0.89693056  0.24073873  0.99880567
  0.90019328  0.42390236  0.64895884
  0.12020297  0.19205446  0.06314055
  0.46852905  0.29180891  0.98585746
  0.69756523  0.34750520  0.07911896
  0.65002774  0.27642976  0.86760150
  0.96864777  0.76435886  0.99232376
  0.84290329  0.48300404  0.81479287
  0.50364038  0.10934938  0.26705277
  0.02381846  0.83463004  0.54530158
  0.74399054  0.30540126  0.29504760
  0.67313076  0.80846167  0.52037938
  0.86514220  0.80938494  0.16518877
  0.64327444  0.01325273  0.75984230
  0.11390989  0.04969241  0.23418885
  0.10927378  0.47412431  0.40308936
  0.00261454  0.91399325  0.84303066
  0.78181645  0.67217692  0.02272170
  0.44993886  0.40872627  0.13503451
  0.66173301  0.36856369  0.68046962
  0.56329818  0.78340309  0.72972581
  0.59599273  0.02400004  0.46693331
  0.90890552  0.17994145  0.34556823
  0.01991722  0.42221574  0.86049421
  0.35097372  0.27242397  0.54688702
  0.27601026  0.08664165  0.98021994
  0.52740609  0.65525687  0.59274732
  0.39715966  0.45008230  0.58485816
  0.40491619  0.06612821  0.47050981
  0.77778998  0.84109085  0.86048633
  0.09717568  0.37858674  0.02018307
  0.04102761  0.14524287  0.88896811
  0.01587516  0.81854777  0.33875893
  0.05149950  0.65707319  0.85296151
  0.76479091  0.50628361  0.34703079
  0.21695157  0.99356550  0.72574575
  0.26206696  0.78340580  0.29497592
  0.88275453  0.85332275  0.82066371
  0.18785188  0.36972516  0.44785587
  0.05568544  0.16041887  0.51256121
  0.34113974  0.56013980  0.28957773
  0.28077163  0.62560285  0.47527353
  0.10483886  0.99898245  0.41184800
  0.08534841  0.04942658  0.69636948
  0.69328444  0.64718874  0.85865662
  0.80360279  0.73573250  0.48220781
  0.12140139  0.21503539  0.32441294
  0.89741996  0.96293300  0.26356466
  0.19291804  0.67112259  0.87063237
  0.24910973  0.86327090  0.44713104
  0.30640189  0.17193179  0.16451606
  0.87684091  0.98589742  0.47416702
  0.59311764  0.88699125  0.90725291
  0.50704619  0.86556589  0.35424397
  0.52620945  0.25334016  0.37783736
  0.81347811  0.00128890  0.95699286
  0.14952229  0.59057823  0.26290997
  0.28531326  0.74237218  0.62786328
  0.74161665  0.74984064  0.29959891
  0.00755874  0.00743349  0.64256059
  0.32752919  0.88200168  0.94525448
  0.69888922  0.90861653  0.09788737
  0.39648186  0.11314984  0.68748103
  0.45727694  0.87352729  0.75217977
  0.50297580  0.45799511  0.29911351
  0.82740493  0.68585738  0.67714006
  0.78651997  0.33152857  0.46128533
  0.81386811  0.87261936  0.64598171
  0.52723051  0.48944810  0.91401570
  0.78800018  0.21748923  0.65117413
  0.56555075  0.17392867  0.16460276
  0.41880204  0.66858132  0.44383850
  0.38845323  0.51785355  0.08752002
  0.64790447  0.12585686  0.96515736
  0.90862040  0.47864168  0.04289213
  0.11276629  0.26216712  0.69630018
  0.22327233  0.97298435  0.81407664
  0.93143037  0.64689408  0.39928687
  0.43273394  0.55104082  0.75617754
  0.57821335  0.23076799  0.56404915
  0.62717837  0.54117420  0.70851181
  0.90417571  0.33859785  0.19563300
  0.29211231  0.41311342  0.93010091
  0.76387712  0.54676700  0.55282529
  0.42854849  0.69564419  0.90228588
  0.51927211  0.68604460  0.23047710
  0.99926540  0.42640748  0.33101601
  0.02645416  0.61687104  0.56355133
  0.23943500  0.24238141  0.85988187
  0.18454221  0.54538225  0.99748399
  0.56092006  0.63418938  0.41471022
  0.76849081  0.44391790  0.90792475
  0.23425118  0.01567588  0.58025568
  0.52660144  0.74025164  0.02899125
  0.57200609  0.45190873  0.50130716
  0.14786393  0.45694294  0.60071617
  0.08054981  0.78610704  0.16030249
  0.34114125  0.78242085  0.73751532
  0.98503800  0.23875131  0.74220757
  0.84549081  0.03722716  0.76530511
  0.23618444  0.94136585  0.12774156
  0.62913767  0.00325053  0.63772925
  0.95843631  0.17165244  0.18887641
  0.82734915  0.04968126  0.46839292
  0.24901626  0.58643363  0.00115745
  0.55375143  0.18350948  0.72853717
  0.29521192  0.09271106  0.32885533
  0.66938090  0.02022657  0.69604254
  0.45963328  0.28864094  0.40126765
  0.70813493  0.69078474  0.15804362
  0.29632322  0.35285895  0.24367306
  0.14057895  0.99011655  0.69971758
  0.29101848  0.77775206  0.68637998
  0.65697445  0.88935265  0.15369855
  0.26897901  0.30837782  0.06140511
  0.40594283  0.82869173  0.71881910
  0.42462647  0.44578314  0.07987313
  0.71650889  0.24728836  0.89692959
  0.29288497  0.34934786  0.08453772
  0.93204161  0.88964511  0.86659026
  0.47988806  0.61167886  0.43276005
  0.69296332  0.74407993  0.16730561
  0.51982703  0.22687099  0.14131504
  0.25088628  0.05980121  0.71715240
  0.30032516  0.03819124  0.61040461
  0.05454218  0.76553737  0.99025342
  0.47488313  0.33782999  0.12217025
  0.36839650  0.63071612  0.48557076
  0.86875957  0.36299033  0.62303292
  0.32564943  0.30677755  0.68366035
  0.12803754  0.64224330  0.83942664
  0.03264632  0.24806077  0.68664730
  0.24339583  0.89814514  0.18153501
  0.72774516  0.08577699  0.13069612
  0.03602066  0.47503509  0.37255775
  0.10152387  0.44511312  0.65138861
  0.26921900  0.30949021  0.69383966
  0.40396932  0.12285015  0.06719608
  0.62392561  0.78303785  0.47756340
  0.83175223  0.49209889  0.88113557
  0.20034754  0.06607653  0.54695742
  0.44453055  0.16014690  0.05817376
  0.49087222  0.03818053  0.27289263
  0.19626416  0.51603838  0.61360778
  0.83829560  0.50457040  0.06699373
  0.84728982  0.40729530  0.80032789
  0.90174603  0.85198537  0.12477383
  0.56154300  0.01996788  0.75968721
  0.52062550  0.87139876  0.92859343
  0.74622218  0.76364839  0.52269719
  0.23401674  0.44368116  0.17904273
  0.12808102  0.76996404  0.76537268
  0.06448123  0.76589349  0.35421781
  0.03287764  0.72517486  0.84054820
  0.17016410  0.31633650  0.48635145
  0.46057937  0.02990427  0.87348348
  0.46853040  0.36425963  0.97900154
  0.57435829  0.81260867  0.67269236
  0.18972996  0.24502395  0.30717883
  0.82749034  0.79209953  0.44649515
  0.26396932  0.92014280  0.96214848
  0.23718466  0.78241057  0.59122813
  0.71011238  0.89246325  0.36940025
  0.88943427  0.95409231  0.41887238
  0.75208050  0.27364975  0.23809484
  0.79684518  0.36880686  0.51833231
  0.16976343  0.33543729  0.19400763
  0.13499657  0.84421710  0.93439343
  0.93163081  0.52723439  0.99673722
  0.11697599  0.59153863  0.70389258
  0.68031807  0.79247015  0.28079841
  0.06929231  0.21226723  0.90639975
  0.50707187  0.42455004  0.88353299
  0.68924158  0.48889065  0.34827197
  0.34677559  0.22787356  0.15290191
  0.52611041  0.20411659  0.52411788
  0.03021523  0.98074065  0.86323790
  0.87188539  0.40212301  0.21256800
  0.58872634  0.13884547  0.11282838
  0.50305942  0.46583285  0.36235868
  0.52236072  0.72302230  0.73148950
  0.55221281  0.02665726  0.41277865
  0.96182413  0.40393045  0.90244676
  0.13717115  0.85256230  0.68907479
  0.94473520  0.53829902  0.19634149
  0.02347759  0.57326754  0.61924362
  0.69029690  0.56600380  0.24634494
  0.43842810  0.12997437  0.92179097
  0.29697714  0.62021724  0.28927655
  0.96209623  0.69439272  0.43952790
  0.40038719  0.98801119  0.04393397
  0.20392461  0.09535881  0.95616578
  0.57839799  0.46649438  0.95827557
  0.59857088  0.22477860  0.84896272
  0.61657895  0.52241472  0.17279523
  0.52925877  0.83755361  0.76580808
  0.63051099  0.06565863  0.00451240
  0.23809440  0.64285289  0.74673543
  0.33932218  0.20228282  0.52604140
  0.32077260  0.06305640  0.93246173
  0.97370046  0.13493829  0.34020064
  0.08120486  0.37377299  0.86547931
  0.41616843  0.12331004  0.42986038
  0.13125908  0.66183472  0.04656017
  0.54578923  0.59085274  0.55830376
  0.41893876  0.52159265  0.58914506
  0.09145640  0.07290561  0.17811447
  0.39906980  0.37066223  0.77581453
  0.96197221  0.65767007  0.22910578
  0.19414721  0.01611553  0.85934348
  0.59183028  0.67303076  0.25708723
  0.75401489  0.99235237  0.91508049
  0.40430186  0.70660053  0.14071094
  0.74526955  0.19501345  0.80341792
  0.43384882  0.12599253  0.63460582
  0.27261628  0.03776287  0.02648075
  0.56389727  0.41536965  0.27495910
  0.92597396  0.44909194  0.48126699
  0.66810513  0.00215118  0.45015889
  0.78388945  0.25765837  0.70304302
  0.42080460  0.85997008  0.22745769
  0.94709754  0.05246228  0.63905463
  0.76467194  0.69533942  0.25951871
  0.25400423  0.15287672  0.11984645
  0.92314951  0.62909807  0.12962427
  0.23477771  0.50825485  0.81031517
  0.37534580  0.26696755  0.31557935
  0.71171940  0.96631799  0.22403935
  0.51595844  0.86995317  0.15392737
  0.83149949  0.26612897  0.84893412
  0.81654419  0.05244280  0.57790674
  0.95402641  0.39848992  0.69473116
  0.97930925  0.79965230  0.58823641
  0.05500379  0.56159632  0.05951085
  0.44156083  0.73830312  0.46141538
  0.05359358  0.75380185  0.21187639
  0.18096737  0.84573245  0.41312828
  0.44430769  0.28023527  0.21440516
  0.11277321  0.32751267  0.97711852
  0.04440197  0.10436747  0.94319773
  0.35377558  0.84756723  0.99707300
  0.93876072  0.76994076  0.93384673
  0.79467010  0.47775558  0.40031540
  0.23647213  0.41750907  0.47134395
  0.42954050  0.55917380  0.12517795
  0.83111501  0.84374050  0.58849125
  0.97605999  0.07079398  0.06157409
  0.06707649  0.07337695  0.27735130
  0.84614719  0.60883575  0.21044514
  0.24762542  0.46804310  0.71670565
  0.85311529  0.11816554  0.11092375
  0.79913884  0.04871793  0.00515994
  0.69241934  0.30082559  0.03146530
  0.85005046  0.46848496  0.68263865
  0.45886290  0.27310678  0.80795798
  0.02033498  0.34355756  0.56654310
  0.05548015  0.00170310  0.58972428
  0.63342345  0.39473634  0.07243563
  0.79894644  0.35563121  0.30646775
  0.83622675  0.57926136  0.55922212
  0.72917691  0.80592566  0.81874492
  0.52754473  0.18411403  0.39338726
  0.35313755  0.11280911  0.17442488
  0.87316405  0.02184010  0.23243877
  0.15519443  0.76451416  0.13887710
  0.00676064  0.53722107  0.71144845
  0.26617222  0.18289127  0.21834847
  0.38828620  0.11924281  0.83023181
  0.83967543  0.75153081  0.13123599
  0.44539779  0.96580319  0.17376550
  0.77874915  0.62637398  0.07381178
  0.90372580  0.52369086  0.79274468
  0.00246532  0.86122879  0.38984792
  0.76866654  0.68327475  0.45204735
  0.86010258  0.16695555  0.29455309
  0.65284264  0.79324647  0.58084638
  0.90763634  0.78342213  0.21422771
  0.09962688  0.95466617  0.46240679
  0.25056520  0.97134283  0.32215563
  0.85888072  0.18722554  0.64628582
  0.56159779  0.75805890  0.08547870
  0.03701862  0.64197937  0.91632669
  0.45937712  0.30481874  0.70711598
  0.75693205  0.49228041  0.59373014
  0.60479509  0.60471605  0.99082032
  0.51704782  0.75091219  0.20445857
  0.40207606  0.27553749  0.01588250
  0.61824584  0.17993747  0.74471389
  0.44251746  0.14963577  0.27993916
  0.09004273  0.86408190  0.57237778
  0.66974400  0.33454073  0.29755376
  0.40213897  0.65810000  0.85457974
  0.80521520  0.84485442  0.19509249
  0.67710829  0.06381282  0.79341581
  0.07630757  0.44259508  0.99277583
  0.95863332  0.69632919  0.01791888
  0.65595126  0.10690235  0.90540290
  0.00896485  0.61034854  0.81791755
  0.62327578  0.47580234  0.45895434
  0.26668228  0.93980258  0.70409750
  0.29598146  0.84761824  0.31102499
  0.60677520  0.31230389  0.91191519
  0.13714181  0.45909800  0.76059515
  0.00216573  0.65611869  0.68993972
  0.50597477  0.00904273  0.98479311
  0.12292695  0.73637650  0.66346895
  0.33830149  0.00756635  0.25882372
  0.45180958  0.95858343  0.57768961
  0.59766724  0.90806551  0.24935431
  0.69694941  0.12029914  0.37496313
  0.54353027  0.53839632  0.06464051
  0.77632081  0.51271128  0.78796122
  0.56386907  0.12121447  0.30121892
  0.17646352  0.48262638  0.36986838
  0.74742103  0.25217159  0.33827815
  0.46813553  0.83870420  0.58257182
  0.51535112  0.12559786  0.19387389
  0.91789791  0.78655405  0.80170200
  0.16164519  0.39056841  0.05800465
  0.30674152  0.47511744  0.89968446
  0.38328100  0.92350194  0.91930239
  0.99706332  0.42466761  0.80082327
  0.77221377  0.63123843  0.97156111
  0.43919499  0.89923693  0.80796109
  0.06999289  0.45552152  0.16460625
  0.67399855  0.02621766  0.58926612
  0.13792831  0.14408573  0.33561375
  0.52513452  0.37262768  0.77109837
  0.14554119  0.61674851  0.32110442
  0.22976490  0.38726330  0.79262102
  0.75512074  0.19936058  0.10956662
  0.53380647  0.27237531  0.01971033
  0.29582124  0.65720998  0.15298353
  0.80896505  0.15903795  0.88572842
  0.86783393  0.16150391  0.39639567
  0.41345754  0.52138610  0.81290449
  0.38293394  0.31422165  0.50137198
  0.83087007  0.93444429  0.98037288
  0.46218658  0.64764823  0.62178634
  0.93506025  0.46645757  0.60529579
  0.01820591  0.96631818  0.09561365
  0.65007891  0.95529908  0.06885446
  0.55794240  0.38087924  0.48917628
  0.10443560  0.63121649  0.55643613
  0.07660944  0.86070417  0.16971770
  0.84946206  0.61493593  0.68371913
  0.01554730  0.14431485  0.56843465
  0.30256361  0.14805733  0.00430944
  0.37206442  0.99071980  0.35433932
  0.71351443  0.10336699  0.27347035
  0.93238472  0.25270172  0.35481183
  0.04228361  0.48695864  0.87901097
  0.39603712  0.26964443  0.59939759
  0.32133089  0.68740148  0.05911284
  0.49722129  0.92688602  0.32234273
  0.35438754  0.44184867  0.53182568
  0.89698464  0.98537403  0.08493863
  0.99941967  0.92475546  0.77799207
  0.97008810  0.46536470  0.28392200
  0.10667930  0.97610690  0.23425416
  0.62283213  0.62266492  0.09070852
  0.18849671  0.78048299  0.00937021
  0.70872218  0.37080071  0.62706152
  0.74972560  0.52783996  0.16133275
  0.56193020  0.98282927  0.50919780
  0.80143559  0.71235795  0.73096919
  0.82598429  0.26932469  0.98523741
  0.71173280  0.42768488  0.86738976
  0.72190414  0.72133238  0.02989769
  0.92155013  0.04463429  0.76208765
  0.16518175  0.65635552  0.22942860
  0.66856601  0.31398914  0.81584646
  0.58493259  0.17035456  0.96803740
  0.10520605  0.11028593  0.66201242
  0.96680149  0.66687859  0.57361326
  0.45527302  0.49626026  0.71905242
  0.27968725  0.29947588  0.56896363
  0.50639700  0.91840137  0.04233383
  0.51702384  0.70878247  0.55075223
  0.46030122  0.40636094  0.58681125
  0.97079089  0.97507350  0.00104933
  0.79190446  0.80108843  0.91386518
  0.09156745  0.24659568  0.37520176
  0.95021894  0.97289663  0.30803203
  0.21977234  0.73548541  0.85048831
  0.27663685  0.93042632  0.43104005
  0.30234158  0.98561408  0.82095501
  0.84329536  0.93838335  0.51492503
  0.63854101  0.89452232  0.95986219
  0.41802131  0.88456842  0.49610720
  0.38851623  0.54637450  0.02879815
  0.70961516  0.15591592  0.99174096
  0.75880718  0.58303953  0.35143335
  0.58502782  0.67403048  0.62870536
  0.19438901  0.90644104  0.82153473
  0.89168163  0.59145841  0.43072709
  0.89988378  0.41056660  0.02420635
  0.92699988  0.28657533  0.74487188
  0.23316228  0.17191686  0.85153909
  0.21473437  0.18818429  0.44629024