124
Lattice="9.851447105407715 0.0 0.0 0.0 10.599852561950684 0.0 0.0 0.0 12.360491752624512" Properties=species:S:1:pos:R:3:momenta:R:3:forces:R:3 energy=-756.8240356445312 free_energy=-756.8240356445312 stress="-0.0338653139770031 -0.007816364988684654 0.003000393509864807 -0.007816364988684654 -0.020075660198926926 0.007500066421926022 0.003000393509864807 0.007500066421926022 -0.020698076114058495" pbc="T T T"
Li      -5.81714440      -0.26785847      -8.50783265       1.51689418      -0.45573668      -0.91236693      -0.28131720       0.67365885      -0.35737231
Li      -0.52688206       2.26523147       2.11688885      -0.17278047      -0.17678491      -0.35508292       0.09100038       0.77727479      -0.81324315
Li      -3.65112418       8.25152893       9.60745093      -0.46285904       0.56899305       0.24556157      -0.31586292      -0.55500740      -0.02993218
Li      -1.29089516       7.14195288       2.03903478       0.08294690       0.14568763       0.41345328       0.14541796       0.17078945      -0.15200582
Li      -5.78582982       7.76844849      -4.71217410       0.56870461       0.23997545      -0.59715621       0.51555741       0.70776784       0.42221838
Li      -2.80348628      11.62264777       4.93420497       0.40426334       0.79104275      -0.15106539       0.16185233      -1.10068905       0.13779785
P        1.05249657       5.64529581       2.01753253      -0.48076331      -1.10812566      -2.21182426      -0.29293647      -3.43712854      -1.16116607
P       -1.40866523       1.96905017      -0.71140547      -0.07625356      -0.17883119      -2.11529265       1.48408008       1.35125327      -1.86126876
N       -2.82015382       1.88128806      -0.08717156      -1.64535099      -0.27944986       0.90616801      -2.95452237      -0.16862510       0.19389972
O        1.24716058      -0.11223315       3.32918618       1.35793442       0.31852033      -0.67845286      -0.32334864       0.58577037       0.59512150
O        1.62307445       4.96869786       0.74592063       0.96992073      -1.22529779       0.42250221      -0.39280847      -0.22431821      -1.06715274
O        4.04134318       2.91659981      -2.21637292      -0.69003450       0.95212538       1.71677792       0.71839797       0.09771106      -0.45024842
O        1.66227920       4.94266558       3.22318893       1.65929947      -1.11614306      -0.90710060       0.60341638       0.60719240       1.89575040
N       -3.13246293       4.92065552       6.54221204       0.70842627       1.81635993       0.86875380      -1.11878872       1.08541417       0.05587745
O       -0.77027285       8.13409869      -2.24676914      -1.08848130       1.18148963       1.15909397       0.70999652       0.90639675      -0.98562825
O        1.50752472       7.05201611       1.97889751      -0.69606160      -0.16896231      -1.07076923       0.45391804       3.92118001      -0.05147070
Li       6.00345317       8.38733035       0.31411048      -0.59401631      -0.65390025      -0.13765921       0.39694256      -0.28451157      -0.04423587
Li       5.92925297       5.83573800      11.41162564      -0.59476466       0.70520823      -1.29054286       0.32310915      -0.10669439      -0.34657577
Li       3.83309000       2.33260297      14.35141436       0.47661762      -0.97986213       0.56946745       0.32023093      -0.13891959       0.54958844
Li      -5.60962748       4.95365358       9.82899059      -0.09027205      -0.15695268      -0.07875596      -0.79283476      -0.17893791      -0.14366060
Li       1.23730248       2.99080243       0.32407108       0.56849596       0.10479408      -1.02544114       0.74153078       0.74999034       0.28730065
Li      10.72429699       5.34713049       5.21708273       0.41905773       0.65165042      -0.20292507      -0.25411001       0.16183090       0.09681648
P        2.01399885       5.76178474       8.17303793      -1.72812381      -1.13444582      -0.35209855      -1.21170735      -0.45473224      -1.78629303
P       -1.85159815       4.00732372       5.98751872       0.07455168       1.17467358      -0.31836631       0.10201263      -1.42034519       3.24495840
O       -2.44843711       2.75257279       5.33857881      -2.22478216      -1.68010288      -0.91369913      -1.86066949      -0.91201448      -0.94086087
O        0.95353886      -0.32994962       6.99306714       0.02703005      -0.03102977       0.92762120       0.68530118      -0.20895934      -0.48438597
O        1.44291141       4.88144786       7.01218492      -0.06072091      -0.14276662      -0.77005060       0.12912366       0.39368400       0.84247684
O        4.02280933       3.25601965       3.95144279      -1.71400883       0.82881638       0.01809537      -1.40103114      -0.82004797       0.54073310
O        2.05565264       5.05163908       9.54567636      -0.50056109      -0.45761322       2.38362019      -0.57584977      -0.06032936       0.03710461
O       -0.78784771       0.58541548      11.34618984       0.19358539      -0.63176564       0.65215086      -0.30682003      -0.38540274       0.62806636
O       -1.12137454       7.82170397       6.47383798       2.25021685      -0.60956386      -1.41251758       0.87794811       0.32071957       2.25624108
O        3.43732229       6.14733939       7.81485031      -0.16622478       1.29721601      -1.01827001       1.16204607      -0.40321454       0.40974820
Li      -1.12089070      15.53209656       0.28934049       0.18564615       0.07408830      -0.75638790      -0.05833101      -0.95237255       0.23030962
Li      -4.02018321      13.89735990       3.78860460      -0.81657545      -0.45679165       0.03661266       0.80724061      -0.58007050      -0.18797475
Li       3.41875889       5.05909201       0.61981655       0.73612527      -0.12121683      -0.18331651       0.58700353      -0.37480444      -0.63724983
Li       1.17777474       8.44863068       0.38953188       0.70141889       0.15224908      -0.28135585      -0.02140300      -0.17532897       0.34471023
Li       1.64112524       5.80932212      -1.10788366      -0.29181529      -0.12592631       1.17566626      -0.66818160      -0.06735866      -0.03150285
Li       4.31689133      -0.34328657       0.73533916      -0.58223338      -0.80021977      -0.03311734      -0.21008444      -0.08447190      -0.24192935
P        1.78806817      11.20843687       2.04957313      -0.04738824       1.18497309      -0.35430241       0.04121672      -0.83128500       2.10851288
P       -1.26548163       7.34565377      -1.02778467      -0.65596927      -0.84862616       0.18019699       1.53112149      -1.38083768      -0.87768292
O       -2.77567398       7.37444671      -1.17214898      -0.56688740       1.64817581       0.07049769      -1.79495704       0.10254545       0.97648728
O       -0.46809425       5.33877093       2.05328874      -0.78610617       0.32191673      -0.28248402      -0.54885626       0.94837183      -0.22539769
O        1.39933734      12.72795419       2.00033929       1.42572208      -0.76263992      -0.92576935       0.26158649      -0.57662058       0.44218603
O        4.07253951       6.21690664      -1.04942574      -0.78212142      -0.38231532      -1.17281574      -0.94893944      -0.81633902      -0.38653630
O        1.14906598      10.43412168       0.91979816      -0.06215250      -0.24317646       0.56697924      -0.53600478      -1.12020624      -2.29958344
O       -0.60099473       7.20628922       4.15195938      -0.01424458      -0.51979165      -0.95302095      -0.93841422       0.92793941      -0.93193889
O       -1.68564741      13.27331964      -2.07812259      -0.11392694      -0.91256495      -0.84578210       0.87242866       0.95905662       0.09214234
O        3.33276227      11.08234272       2.03521726      -0.42577682      -0.89476563      -0.29636562      -0.32761014       0.15712322       0.64150363
Li      -1.25846573      10.12544874       6.79512539      -0.22395451      -0.18512424       0.62326149       0.50043285      -0.34344119      -1.04529119
Li      -3.57835577      13.46749115      10.10542334      -0.51602146       0.31555559       0.51823717      -0.29310304       0.47648680      -0.10004696
Li      -4.05504635      13.78018357      13.21492249       0.70838486      -0.93328597       0.80720132      -0.08992986       0.31778035      -0.75638545
Li       0.99595390      13.53251986      19.22604333       0.23042234       0.48871882      -0.26507126      -0.54417306       1.27026844      -0.71389675
Li      -1.66960577      15.95427804       3.60418854       0.15894643      -0.94347212       1.32468731       0.43963480       0.12947917      -0.29218778
Li       3.09107572      10.07103715      10.47544691      -0.36201459       0.47632615      -1.47514137       0.45963293       0.07960422      -0.99206829
P        1.73912673      10.95998052       8.16477308       0.70390036      -1.15175226       0.27958641       0.67030585      -0.06129547      -0.89019847
P       -1.49305301       8.11960945       5.04785642       1.81567422      -0.01247386      -1.47227576      -1.60349488       1.23032308      -0.82609469
O       -1.42832254       9.67474680       4.81398114      -0.30697546       0.20289019      -1.61881663       1.79401076      -0.01726300      -0.29554498
O        1.23538933       7.12676903       8.18545497      -0.46405184       0.91999708       0.75732513      -0.66603839      -0.23249048       0.30589181
O        1.24221503      10.30890453       9.43990124      -0.88436575      -0.68733100      -0.70371736      -0.02388746      -1.07751334       2.19242859
O        4.03974784       6.33265535       4.92409739      -0.68456527      -0.73947579       0.66533970       0.37529182       1.28345180      -0.16251667
O        1.49751745      12.46408551       8.11658995      -0.94571258      -1.91839865      -0.61037355      -0.42950615       0.88934892       1.04224324
O       -0.66398029       5.87924861      11.07858550       0.33236395      -2.20747154      -1.12454655      -0.81841218       0.87546897       0.90033364
O       -1.12385849      14.19814174       7.28418728      -0.70823807      -0.18907779      -0.23933485       0.89397973      -0.69360429       0.28150642
O        3.29268955      10.81908914       8.10670307       0.59177719       3.84695591       0.63180327      -0.22487438      -0.60265636      -0.19733149
Li       3.91487244       2.07541574      -4.08406463       0.33775380      -0.25737645      -0.25075474       0.11718249       0.08384964       0.20974323
Li      14.38142707      10.47280292       6.62013717       0.54430185      -0.35599784      -0.87716862      -0.52250910      -0.44147730       0.20012580
Li       8.05865058       4.62366417      10.02961834       0.35357369       0.54478276       0.47284323       0.50583625      -0.30727801      -0.20333895
Li       1.50222213      10.90503316      -7.06646672       0.01345019       0.61596978      -0.69863537       0.03078239      -0.06385809      -0.54590154
Li       8.90362885      -0.54469374       0.83387179       0.40965780      -0.11317863       0.23888070       0.18858643       0.17179903      -0.51501489
P        5.99062623       5.70409166       1.90478183       0.84295830       3.42514253      -2.63017801      -1.53849411      -0.52295339       2.14553571
P        3.47866274       2.24082893      -0.95157913      -0.52408804      -0.22260663      -1.47424075      -0.07888656      -0.18482327      -0.71152508
O        1.93400917       2.21359393      -1.21358439      -0.23854315       0.19853207       0.47316863       0.37547904      -0.72595072       1.34386730
O        6.18366743      -0.36108951       0.75194194       0.88728858      -1.21199186      -0.61342625       0.51254094       0.99001127       0.84941006
O        6.38515985       4.97535842       3.27890282       0.46463663       0.55719200      -0.43230640      -0.01540209       1.49481654      -1.01005733
O        9.37807360       2.91832142       0.09646824      -0.10995971      -0.06111965       0.76962101      -1.13904750      -0.29715836       0.19776666
O        6.66429596       7.08200053       1.76571880       0.59521223       0.48520853       0.09102969      -0.30185565       1.00736356       0.80359763
O        1.88048776       2.29990060       4.96060866       0.05240419       1.19561595       1.15850913      -0.47862747      -0.43426597       1.20020461
O        4.28987357       8.39099872      -2.40321642       0.12273310       1.56715566       2.45324420      -1.49269378      -0.40494859       0.61123204
O        6.48952206       4.86769300       0.73998063      -0.55301594      -0.53289160       0.07605481       0.40107533      -0.36724818      -1.36420023
Li       0.96276174       7.97338798       3.55027896       0.35042156      -0.69246097       0.58520540       0.54369247       0.67079628       0.18663308
Li       3.53839434      -5.52980569      16.10021383       0.43394849       0.88856791       0.55388579      -0.01135957      -0.02053986      -0.81548941
Li      -3.57334826      -2.07667000      19.13784225      -0.90733111       1.03974687       0.60714842       0.05799176       0.54962087      -1.17862105
Li      -0.80619571      10.67755552       3.46470213       1.26225964      -0.51887451      -0.40241494       0.98565084      -0.59590924       0.69277698
Li       6.09976815       8.53757282       3.17409634       0.20962352      -0.20648549       0.08934808       0.71051025      -0.21266164      -0.10749193
Li       1.18383361       8.33148353       6.77006409       0.17065860      -0.35138133      -0.54266920       0.04767935       0.08505969      -0.88215643
P        6.36989033       5.58098762       7.99961980      -0.97482254       1.36317823       0.89185130      -0.02226429       1.27543414      -0.78476417
P        3.38618313       2.44495089       5.17168874      -0.49222433      -1.80867679      -2.14512918       3.38939571       0.35286561       0.70767534
O        4.15064585       1.04541397       5.26537822      -1.06156432      -0.43875759      -0.11525186      -1.37272048       1.19821608      -0.99036092
O        5.99106898       7.09893828       7.79936640       0.85653936      -0.74093915      -0.59007369       0.68895453      -0.93851471       0.65976322
O        8.96050186       4.58875317       4.99538358      -0.16313696      -0.49188077      -0.26808308       1.07587636       0.77481365      -0.53923821
N        6.16729167       5.00572326       9.38352248       0.74155778       0.57413791       1.52276507       0.76045454      -0.58478612       0.30553973
O        3.85020330       3.12096635      12.63398329       1.06324515      -1.21122478      -0.13240347       0.04469799      -0.14918312       0.16106832
O        4.30254865       8.50252589       3.43851559       0.50916621      -0.59016359       1.25852555       0.17802486      -0.09525802      -1.16713154
O        6.25353286       1.82047612       8.68127537       0.47802499       0.29518438      -1.52858121      -0.09340671      -1.66797948      -1.63583517
Li      -1.27596842      -8.57920807       8.60232608      -0.45124002       0.25551450      -0.18516605       0.29202601       1.53840804      -0.24165702
Li       0.99103959      11.07542699      -0.85390440       0.04393029      -0.16590159      -0.06991762       0.37385780       0.42090669      -0.52405173
Li      -5.63706115      15.64690523       6.63366562      -0.31361343      -0.10935633      -0.51062378      -0.17859307      -0.22458065      -0.69626200
Li      -0.76238704      17.92270457      -4.12412676      -0.40018669       0.18350783       0.37886633       0.03748225      -0.33355716      -0.02161784
Li      -3.94707559       6.12204600      -7.33402996       1.48725720       0.14383554       0.03938607       0.68999588       0.09558564      -0.12199017
Li       5.91127736      10.90665802      -1.21718154      -0.02367522      -0.53054315      -0.22565692       0.01833757       0.20175953       0.22654101
P        6.84490188      11.63565220       1.30364701       1.14734958      -1.40939154       3.08240650      -0.64492309      -1.27147841       1.57688868
P        3.56111408       7.67027159      -1.22999606      -0.07024248       1.07473975       1.48177555       3.50570679       0.70506191       1.53481042
O        4.06969835       8.34019612       0.14433143      -1.12998441       1.35483211       0.90649291      -0.44875929       0.55289400      -0.47816426
O        4.40565392       5.78569215       1.94143439      -0.95683454      -0.25637411       0.44713821       1.38483357       0.42312554       0.22949535
O        9.10085750       7.94815739       0.32582211       0.28559037       0.38802970       1.74128627      -0.22158311       0.27576768      -0.45384645
N        8.12585743      11.43927316       2.15313121       0.19064356       0.01885013       1.12441716       0.04617435      -1.03872097      -0.28978848
O        2.26268891       8.17297450       4.87653724      -1.67861205       0.22988465       0.22386639       0.08290368      -0.43738195       0.13447268
O        3.98320402      11.36622376      -0.77584544      -1.34684934      -0.76646837       0.04299601      -0.15966192       0.60039794      -0.56455624
O        5.84754630      12.51788885       2.16012012      -0.72333058      -0.33090099       0.37668251      -0.84124810      -0.52701616       0.03522277
Li       1.43719661      13.87673530       3.52054167       0.74448844       1.17810709      -0.16658368      -0.14765275      -0.83268255      -0.31116802
Li       5.91234097      12.79958504       6.62027634       0.74489101       0.72783884       0.70527933       0.08947944       0.11817792       0.45991448
Li       1.00759223       8.34257231       9.51059009      -0.25833948       0.38020438      -0.11876562       0.34852636       0.32757160       0.73404968
Li       8.64920066       9.89981442       9.87212332       0.14466770      -0.77052339       0.46159504      -0.00105823       0.71020901       0.43060681
Li       3.57864396      18.25443033      14.21995207      -0.40901079      -0.95579424       1.15837849      -0.07816592      -0.47328025      -0.01895747
Li       1.70730187       3.21978637       9.68856010       0.35605129       0.68089228       0.27279393      -0.16883838      -0.09374794      -0.94369841
P        6.78951174      10.94656029       8.31154708       0.58783275      -2.16832337      -1.53654676      -0.16093311       0.55585414      -0.86970013
P        3.79278608       7.88287126       4.74454328      -0.29394444      -1.11942523      -0.83953312      -1.65503860      -0.14467543       3.50538039
O        4.45825557       8.66601898       5.94068867       0.00004507       0.32367010       1.47236150      -0.60667759      -0.82552433      -0.44262686
N        6.43668723      10.56952434       6.79719460       1.34265833       1.28205040      -1.06607340       0.30837741       0.55385041       1.60560966
O        6.81932206       7.95464862       4.84585307      -0.30393983       0.76044533       1.39719606       0.18506747      -2.07225537      -0.59010983
O        6.42380455      10.03925726       9.54650582      -0.47017522      -0.00692857       0.02709080       0.10918066       0.26535457      -0.28047347
O        2.04565488       7.82769826      11.12451337      -0.09730968      -0.27720542       1.62828921      -1.02787554      -0.10309576      -0.27907744
O        3.81034573      13.82346475       6.48763500      -1.52679600       2.49492585      -0.26029181      -0.13530615      -1.12454438      -0.68069226
O        8.39462029      10.90000293       8.36064606       0.26225227      -0.23119518      -0.19477929      -0.56973863       0.20771758       0.52653873
