2304
Lattice="40.159523010253906 0.0 0.0 0.0 42.61195373535156 0.0 -0.45381200313568115 0.0 39.60435485839844" Properties=species:S:1:pos:R:3:momenta:R:3:forces:R:3 energy=-10202.8583984375 free_energy=-10202.8583984375 stress="-0.006410851143300533 0.0005997901898808777 0.00028466410003602505 0.0005997901898808777 -0.004504667595028877 -0.00014207100321073085 0.00028466410003602505 -0.00014207100321073085 -0.006303672678768635" pbc="T T T"
Na       4.90497257       1.04742688       2.39733249      -0.64370930      -0.00295028       1.72144020       0.36357287       0.12706931      -0.12475047
Na       5.42477578       4.97829129      19.56000218       0.77565064       0.48356999      -0.79567756      -0.25852787      -0.16017507      -0.11933441
Na       5.35603760       5.82459360      -0.10810114      -0.57428657       0.09211813       1.16531496      -0.33868086      -0.41687989       0.74104357
Na       0.68686256       7.32980953      29.85403526      -0.16086807       1.25474471       0.25204419      -0.01262539      -0.06821099      -0.12091123
Na       0.60482827      12.90533963       6.49065344      -0.34697242      -1.24429839      -0.88748059       0.19979568       0.35203230       0.11435885
Na      -2.15990298      18.35555114      25.45421007      -0.39412696       1.66659786      -1.22200025       0.00952670      -0.11127811      -0.07361716
Na       4.72811732      25.47170146       0.21279913       1.16283650      -0.77609717       1.07873143       0.19198112       0.02396426      -0.41656747
Na       6.45410162      29.84400952      24.39493386       0.98595600       1.80267063       1.17787130      -0.18942717       0.01318868       0.45949909
Na       4.79318790      20.61309862       4.80721426       1.23613228       0.62130318      -0.53283729      -0.08669354      -0.04536669      -0.05595606
Na      12.94936056      23.98297919      32.09238164      -0.17726570      -0.00005519       0.86081155       0.15409321       0.12367416      -0.20604879
Na      -0.36456786      38.51192108       4.12787831      -0.15161449       1.00496468       0.28772836      -0.39715102      -0.19871658      -0.04291900
Na      -6.21290662      32.26528272      17.93575262       0.29663827       1.18589327       1.25879032       0.09643736       0.31015369      -0.13378832
Na       4.26644270      -4.89451313       1.35948351       1.61814825      -1.27089110      -1.97523812       0.15214147       0.01904504      -0.14086816
Na       4.38752970      -2.23974682      29.68784814       0.68754931      -0.30409210       0.00739195       0.23690510      -0.06954668      -0.43411005
Na      11.22285572       5.28543238       4.87793564      -0.51905334       0.33912502      -0.11366254       0.14446664       0.08721371       0.08116721
Na       5.02588118       5.72346688      14.51750730      -1.15420647      -0.77111825      -0.72820200       0.15140028       0.06883522       0.07132369
Na       7.20931649      15.74356634       4.57804346      -0.93840857       0.78708549      -0.75816728      -0.05436267       0.08467400      -0.01992793
Na      14.92518401      15.83563835      19.52404617       1.23377443       0.24333941      -0.67936797      -0.08665238      -0.13496427      -0.00085518
Na      12.51338022      29.37710296       0.72483763       0.18294064       0.78448366      -1.78448075      -0.00563034      -0.10955507       0.10334142
Na      10.18220732      20.01025735      15.76678875       0.45743947       0.35273256      -0.60025522       0.40769982       0.21248782      -0.15122402
Na      15.58388515      31.89708067      15.31571500      -1.01557949      -0.23259856       0.05876655      -0.06570124       0.01147296       0.11181447
Na      -0.36790427      22.88165424      20.63711656       0.20812700       0.12777966      -1.00380387      -0.15818585      -0.31177932      -0.44821319
Na       6.08150219      40.58864346       9.30360133       1.87487474       0.28295162       0.78796755      -0.04742648      -0.22997281       0.02669846
Na       8.41470291      34.34137025      18.50013272       0.34399889       0.21525014      -0.35777199      -0.01688436      -0.03249200       0.16121921
Na      19.08042787      -9.29698843       4.51950826      -0.44369055      -0.84197164       0.75451703      -0.08103826       0.09707707       0.16554651
Na      15.10918927       9.14602379      25.14552187      -0.49483434      -0.50737420       0.92178406      -0.06297444       0.02388348      -0.12038733
Na      14.19851521      16.35057368       5.21489989      -0.17856779      -0.10748762      -0.69347606       0.11276011      -0.15905125      -0.10172221
Na      11.04173724      12.39020275      19.36859740      -0.43837557       0.54328706      -0.02653191       0.23690085       0.16665083      -0.01239894
Na      18.34517835       5.88217612      -8.60807262      -0.67744599      -1.94016790       0.55607062      -0.03129835      -0.08079300       0.07447630
Na      19.82384553      20.37020062      18.71276525       0.04336721      -0.44690633      -1.86714599      -0.44697815       0.49882507      -0.46120316
Na      12.55524301      34.63415609      -4.30522472       0.96215586      -0.59675985       0.78085123       0.33053821       0.09378420       0.23330994
Na      11.30820551      21.01459690      23.86012134       0.38943187       0.39872302      -1.36009995      -0.03931171      -0.19315088      -0.13227209
Na      15.95633935      31.10514524       9.39446707       0.01806934      -0.14540177      -0.44502016      -0.16921073       0.27154174      -0.04284607
Na      10.54454056      27.35787122      29.77423892       1.99954338       0.32780633      -0.55169863      -0.03369449      -0.05727348      -0.00834908
Na      11.14836823      48.95877586      19.85982918       0.90823844      -1.15810288       0.53854924       0.02672218      -0.19014636       0.02697726
Na      15.05955778      44.19214704      30.03162046       0.56160392       0.07465854       0.78475148      -0.13488358       0.32982108      -0.07968485
Na      19.91814681      -0.36623027       9.70848984      -0.25239103       0.52889255      -1.99213984      -0.36860120      -0.00681349      -0.04405495
Na      15.88990139      -5.01917454      25.32130259      -0.71627935      -0.23642271      -0.12406569       0.11099685       0.26794845       0.17595807
Na      18.59222869      13.97720565      14.81341747       0.95324700       0.77296546       0.26920045       0.01394226      -0.01454339      -0.01312003
Na      17.16258989      13.57095887      25.01631853       1.46297072       0.42373985       0.66768393       0.23875803      -0.43861237      -0.42821559
Na      21.34650088       9.97025059       9.72795658       0.76946913      -0.34409903      -0.16248926      -0.38777885      -0.29506510       0.04020941
Na      23.50106848      13.33735230      28.81782652       1.10300626      -1.17195376       0.34815388      -0.15908758       0.15535845       0.25191623
Na      23.79647798      20.66951098       9.95857711      -2.11396586      -0.48981791      -0.54440025      -0.08303885       0.00586236      -0.17151210
Na      11.29568054      27.23088715      24.83854057      -0.26530206       0.26227343      -0.74174806       0.06692049       0.05351019       0.16169068
Na      17.84796590      30.08984468       1.53256379       0.43665313      -1.93303770      -2.38651025      -0.20947835      -0.03898624      -0.15881482
Na      22.02128217      30.73754081      24.94204693      -0.19035961       0.49801020       0.69726363      -0.42901915      -0.05520969      -0.18784410
Na      14.06845364      43.77365655       5.20559871      -1.28307542      -0.14153837      -0.38894564      -0.22144476       0.27738854       0.63003433
Na      20.90066564      44.77734756      19.83547585      -0.05159018       0.40579187       0.29774808       0.30096817       0.15601036      -0.13076317
Na      28.15257620      -4.60059064       5.09102506       1.10968589       1.15334923      -0.21070381       0.43633604      -0.00822711      -0.28469962
Na      31.30209485       1.59866045      30.76119873       0.65439415      -0.94638635       0.38112377      -0.53912008      -0.19073310       0.17644116
Na      23.44251026      10.51896621       3.96002698      -0.79195171       0.86155976      -0.33405263       0.07591271       0.11535369       0.11588608
Na      27.26680796       9.64923425      19.76252993      -1.21345845       0.64814043       0.05724676       0.42911744       0.21322094       0.54087782
Na      30.29526229       9.08971189      11.93451371      -0.26638843       1.03198202      -0.17891364       0.08724891       0.08582754       0.11742909
Na      23.11701926      18.20884865      31.19777011      -0.68408632      -0.15103254      -1.65130512      -0.01686707      -0.08663566      -0.10085692
Na      28.80274271      23.58388463      -0.45141382       1.03132984      -0.34775504       1.15128830      -0.02796902      -0.05281340       0.65290034
Na      27.78126634      23.40728216      28.86077605       0.10856528       0.75235094      -0.09729451       0.33523703      -0.10128717       0.13589743
Na      25.28806537      27.27687386       0.57387208       0.80658978       0.02054415      -0.52428483      -0.10321108       0.14714976       0.17936791
Na      28.56587898      28.83389439      27.42010825      -0.01778446      -0.06346625      -0.15328733       0.02837845       0.02407481      -0.02889158
Na      32.03434083      37.46990316       1.42913109      -1.04414593       0.08956151      -1.42367924      -0.09984061       0.06802183      -0.04676908
Na      39.23059482      34.60304108      31.08425681       0.69211831      -1.05151054      -0.67205231      -0.25442103       0.23866951       0.13079658
Na      43.26328694      -1.01531977      -2.19104503       1.25916951      -0.31885729       1.19372101      -0.44178638      -0.28617719      -0.44953889
Na      44.43789935       5.32836514      24.53968791      -0.11065239      -0.08581641      -0.52531666       0.25106519      -0.11077914       0.30082625
Na      34.77946855       8.32914801       5.15833285      -0.09765470      -0.12918956       0.48994098      -0.08761063       0.03882341      -0.06909263
Na      32.81996975      10.54510936      19.49668908       0.05594979       0.02635373      -1.59648287      -0.21277809       0.01587012       0.10483526
Na      37.51891401      12.13820472       4.42333565      -0.87086897       0.76836230       0.17152147      -0.09364538       0.10403506       0.63528466
Na      20.92989151      19.28403714      25.97443173      -0.43570283      -0.52769655       1.34495772       0.28391808       0.32650432      -0.09888081
Na      31.98489584      18.87947328       0.07157969      -0.60824473      -0.16845452       0.69412823      -0.13415906       0.14073187      -0.03125278
Na      22.02318212      26.24940663      26.92660881       0.88312132      -1.84916835       0.47313012      -0.01008259       0.00188809       0.01361007
Na      35.07065059      33.21737599       6.68847152      -0.20703657      -0.10215053      -1.53272294      -0.21596210       0.04461684       0.04269117
Na      40.26172147      32.70432625      27.77949374       0.40945879      -1.45073731      -0.90431862       0.20629053      -0.39644846      -0.23050328
Na      28.29916504      30.51900701       4.80578079      -1.84918692      -2.04319963      -0.35824677      -0.09167884       0.01737703       0.18864292
Na      35.76306588      33.66364955      26.29545646       0.58564739      -0.13145409       1.59040905       0.22038752      -0.02243153       0.33805305
Na       7.48339392       9.93961515       9.37357483      -1.70709044       0.30238593      -0.78496825       0.17687376       0.17999989       0.01086420
Na       1.40896155       1.44930245      30.45351927       0.86489337       0.97394202       0.44796146       0.30237359       0.00584783       0.11818206
Na      10.82322756      12.35056560      10.17545814      -1.44193776       1.18538735      -0.60659820       0.49897856       0.04467170      -0.08135369
Na       5.54038091      11.57167880      25.26243089      -0.74161883      -0.98974392       0.44164659      -0.07933111      -0.19462866      -0.12001152
Na       4.18020543       9.55420177       3.17541257      -0.05849910       0.94516091      -0.50383085       0.13522553      -0.05631990      -0.07374421
Na       2.73932396      14.86357991      22.84385468       1.26923511      -0.61589904      -1.23328742       0.00376574       0.08551644      -0.12368282
Na       5.40019014      25.94262301       9.12052726       0.71783392       0.53919836      -0.30199317      -0.18917066       0.14932784       0.32510996
Na       8.50670835      22.44893816       9.05614808      -1.33512762      -0.67166543      -2.06177915       0.51411325      -0.12449721      -0.23984343
Na      11.67534203      41.85191795       9.70687817      -0.21001178       1.25617186      -0.45223500       0.21396337      -0.07770707       0.23607932
Na       7.18128151      29.83072565      30.63488499      -2.13486518       0.29455006       0.80163262      -0.07439817       0.04709555      -0.15005599
Na      -3.13216592      43.49898943      -4.55729400      -0.44883850      -0.96948571       0.81529773      -0.25881732       0.33425367      -0.55422968
Na      -0.64167016      33.18298910      19.94775781       2.67411067      -1.59269817       2.17992501       0.38535729      -0.21697803      -0.01786298
Na      17.75725303       5.36346774       4.75494828      -0.91506292      -1.04857235       0.45863056      -0.05614620       0.05831400      -0.09824149
Na      10.16715542       1.04814083      34.30995735       0.61978113       0.95897638      -0.30757644       0.07086066      -0.00337365      -0.33390963
Na       3.65735317      18.39043990      -0.59043141      -0.41980907       0.52139463       0.32969050       0.06960521       0.03471346       0.08534113
Na      10.45482760      12.62389873      25.00923681      -0.56573524      -0.99755666      -1.27443221       0.12245378       0.00691481      -0.04184075
Na       8.38005118      14.58787085      -1.18847163       1.49896608      -0.11046357      -0.88647330      -0.29573113      -0.05676366      -0.12061796
Na       5.10106793      15.90783489      10.60766639       0.69229465      -0.65833542       1.53148851       0.10020828       0.25077987      -0.00945789
Na      18.59395246      23.83445403       3.38377731       0.65212878      -0.93722867      -1.35957949      -0.05219611       0.05608334      -0.09559955
Na       8.41115879      30.08797157      15.58748437       0.33392255      -1.36934994      -1.14001876       0.13078243      -0.13936695       0.07768118
Na      14.30837828      13.72269065      -2.39225442       0.51481248       0.15831341      -0.11895934      -0.21243970       0.10205121      -0.02112329
Na       9.81924063      38.06687220      19.77163601      -0.49650548       0.19271495      -1.48064301      -0.20920408      -0.01289660      -0.49411392
Na       5.31890671      42.92527975      12.76337412       1.07677646       1.37684093       0.17325260      -0.15256466       0.07944819       0.22581716
Na      14.66559483      45.04111991      24.98787967       0.06796574      -0.20165108       0.83671566      -0.01008306       0.23526263      -0.08221956
Na      15.07404395       2.12510492      14.45004734      -1.31784992      -1.56505010      -0.23708318       0.20454615      -0.11952168      -0.07398473
Na       2.13020147      -2.33401996      17.08665420       0.97228598      -0.34894781       0.92368254       0.10220746      -0.17553343       0.03593977
Na      18.61797911      14.18879994      10.23973636       0.54119201       0.02684343      -0.29884211      -0.03273019       0.07579000      -0.22325143
Na      14.79602836       8.95849930      19.17749799      -0.71179889       0.02545781       0.83297233       0.11979386      -0.03455964      -0.13624200
Na      24.13822535      14.32436925      -0.26727598       0.14201046      -1.31048848      -2.22848001       0.25466362      -0.18428075       0.41929919
Na      16.99725834      19.96539452      25.55632615      -0.04111934       0.35899286       1.84101816      -0.01935422       0.27104437      -0.24792960
Na      17.48094144      20.45711311       0.49322160       1.32462842       1.16292512      -0.53888700       0.12779200       0.00679783       0.14748040
Na      12.11708164      33.70487018      19.78291899      -0.39225168      -0.00548118       0.09092904       0.22510029       0.73502958       0.07666154
Na      25.23377953      35.36204275       5.45749152      -1.14212571       0.51649810       1.06749062      -0.18835886       0.04695212       0.07230259
Na      14.95394110      24.31699654      20.71059813      -0.08948012      -0.09658930      -0.28602875      -0.12743269       0.31514680      -0.30132782
Na      24.77490917      47.86344533      14.73600922       3.43439133       0.58187995      -0.34537158      -0.07279907       0.18131095      -0.13314213
Na      27.03828035      37.46212105      23.37211856      -1.88695971       0.41699810       0.98402746      -0.09292770       0.01026526      -0.11455206
Na      21.36961191       5.98274219       7.50703763       1.24963887       0.85291907       0.47810200       0.10572190       0.01929343      -0.14294504
Na      21.51191575       5.29539491      26.70735501      -0.01320681       0.53724847      -1.12150154      -0.39799625      -0.11301977      -0.07259661
Na      27.99358976      10.35481171       5.63061476       0.65691566       1.20416972       0.84663738      -0.19579577       0.27659526      -0.18752584
Na      20.88415888      10.12096965      23.75375638       0.21753980      -0.00442413       1.56569678       0.12014342      -0.06349333      -0.24074219
Na      27.92853211      15.96700553       0.20059027       0.86597773      -0.49391413      -1.80023816       0.00834079       0.10023797      -0.02585281
Na      24.23600799      13.70501105      18.89250107       0.76856719      -0.90975613       0.84967799       0.00337583      -0.13786358       0.26948777
Na      21.12027965      24.10125906      10.87335960      -0.14618839       2.31844967       0.02184800      -0.10568972      -0.05627689      -0.15229407
Na      22.53257094      30.83452062      29.63469404      -1.06569038       0.37726587       1.08163450       0.10927920      -0.08228146      -0.01508939
Na      24.87854635      35.37058151      15.02472945       0.18633694      -0.36207590       0.27051739       0.07724184      -0.14970940      -0.29073399
Na      32.22097358      32.07762857      23.46989261       1.00938162      -0.55010211       0.83960950       0.42858583      -0.30225447      -0.08833594
Na      19.63136472      42.02062481       0.28069939       1.01591745       0.13662659      -0.56110802      -0.09636597       0.14688182       0.10944450
Na      22.35273176      34.83643027      29.15876174       0.78876044      -1.00753196      -0.82326937       0.05748434      -0.03179698      -0.39815423
Na      28.98987334       4.02384088       6.67612804      -0.32989698      -0.69253500      -0.79377857      -0.12877946       0.05442243      -0.10933202
Na      31.24338008       4.59607462      24.95822357      -0.74096792      -0.12868788       0.71846476       0.20642719       0.06455567      -0.02161356
Na      33.99077577      14.41786966       5.05365924       0.15806847      -0.73726288      -0.59181279       0.15193772       0.17796604       0.07202347
Na      27.47126956      19.31037147      28.51744520       0.80599763       1.23101772       0.36510635       0.05133777      -0.16163069      -0.13042858
Na      24.37236990      18.83059507       2.66302005      -0.36922701       0.05681655      -0.37472428      -0.33303934      -0.01066672      -0.10824842
Na      25.37712511      19.21629866      18.95286077       0.07486823      -0.14114686      -0.10301271      -0.01290534      -0.04656176      -0.02646852
Na      25.40882154      22.55557735      21.16461715      -1.05383663       0.94950659      -0.46145167       0.02874464      -0.74261081       0.45227808
Na      35.12306903      22.92695449      24.92493815       0.64135244      -0.10254357      -0.01621731      -0.02842004       0.34317851      -0.33332348
Na      36.77029309      32.87564774      -2.70389291       0.94813492       0.11944574      -0.47200801      -0.04671428       0.18194890       0.00691373
Na      32.25222918      40.25426495      20.15520091       0.19908595       0.04266173      -0.71886422       0.24235758      -0.09021755      -0.17581788
Na      29.56643731      42.11970692       9.67016850       0.33379180       0.15416896      -0.11641321      -0.03871518       0.20109020       0.26628089
Na      28.73268982      36.33877619      29.80588312      -0.45933471       1.93921417       0.01344549       0.03105979       0.25097728      -0.39084661
Na      31.88658477       5.91758371      -0.35711067       0.39589295      -1.62220873       1.50086871      -0.60334945      -0.57867903       0.35504702
Na      41.34730245       8.68758611      20.04938929       0.00860162       0.05019056       1.47733150      -0.09038748      -0.09972633      -0.16465902
Na      33.41142509      17.93003268       7.96479559       1.19764068      -0.80791747       0.06063696       0.07067437       0.07893261       0.08710210
Na      38.67163645      10.88557229      29.49975035       0.57028692      -0.54689059       1.40022243       0.01067428       0.19731870      -0.02841629
Na      38.77526948      25.52105108       4.90067119       0.51056201      -0.73290424      -0.79553180      -0.33650553      -0.11337425      -0.20017089
Na      35.22740748      14.93480686      24.28359187       0.07655823      -0.96472117      -0.03916770       0.00264354      -0.17612863       0.12393658
Na      42.12575714      33.47941254       7.58594028       0.54179670      -0.45917447      -0.40163343       0.27708092      -0.03985219       0.20325610
Na      41.98896483      22.71453381      24.47843404       1.09907756      -0.04543556      -0.99273021      -0.21656707       0.22919674      -0.05768200
Na      45.83100527      33.09984633      -0.21197581      -0.11293893       0.02561248      -0.35528082      -0.03464444      -0.07374717      -0.10489368
Na      29.71390016      23.78320531      21.64975480       0.24838391       0.79394648       0.90130428       0.11648288       0.16189766      -0.21545583
Na      42.24715369      40.43111712       8.02155737      -0.50480586       1.10332760      -1.36656653      -0.11813950       0.14558743       0.33566955
Na      39.05894657      46.69484774      25.59297249       0.30850448      -1.70879445      -0.77444668      -0.08935299      -0.16494749       0.13561057
Na      -3.08641682      12.10524914      20.62303451       0.08772697       0.58435937       0.62945475       0.20893390      -0.03005367      -0.18350342
Na      10.88563677       6.55997465      39.38795166       1.64486457      -1.15818730      -0.52568402       0.06642528      -0.01324677      -0.17492524
Na       0.28400451       8.09282204      14.39302176      -1.05221288       0.60277110       1.26230549      -0.16024621      -0.12922445      -0.09380485
Na       0.41969111      14.79466522      35.37372878      -0.46404034      -1.00694230      -0.25435437       0.02914601       0.06681873      -0.11439563
Na       4.02544411      19.61429427      19.88286760       0.97171770      -0.10551378       0.84443323       0.16547030       0.02929914       0.07806809
Na      -0.70639953      21.29106590      40.71885742      -0.94381925      -0.97288760      -0.10044206       0.08294211      -0.02625569      -0.23957111
Na      12.39956919      28.80115808      10.98886888       0.03760043      -1.02379466      -0.80930094      -0.27485204       0.27253777      -0.19317518
Na       0.72118093      23.15932124      29.28594668       1.39436014      -0.21910703      -1.27262196      -0.00512431       0.22407401      -0.11037379
Na       9.12865304      37.24176818      23.60540656       0.65481418       0.79737505      -0.10464435       0.19621101       0.41249061       0.31879306
Na       1.99869102      35.87244388      24.06465694       0.28891331       0.36907045       1.13876683      -0.11036812       0.22062004      -0.27691045
Na      -1.25388668      38.55279466      14.54544263      -2.07796657       0.30583034       0.65410428       0.06736523       0.08569485      -0.17127648
Na       1.39788649      37.36067196      35.56602261       1.26176401       0.21554419       0.80588359      -0.06380928       0.01803832      -0.04933630
Na       6.47393358       5.59155028      10.44916624      -0.25514965       0.73284461       0.06830199      -0.20082484       0.35392213      -0.30157521
Na      15.05524345      10.89054891      39.92831159      -0.12750683       0.95637730      -0.25272855       0.06902965      -0.11958712       0.10247036
Na       6.97622990      14.40823231      18.18268993       0.40350403      -1.27908112      -0.90644523       0.45341825      -0.01214326      -0.02409852
Na      11.05085055      15.63839077      32.67515446      -0.48358069       0.23180918      -0.99811681       0.31705680      -0.27739117      -0.18367545
Na       6.29637611      22.89804187      13.37281290      -0.33678340       1.24526321      -0.52451769      -0.18912965       0.04531420       0.03909763
Na       8.94713999      27.12411655      38.20892281       0.93400269       0.37869476       0.07092941      -0.06068408      -0.03324845      -0.30023712
Na       6.18160610      30.77096628      12.83493677      -0.66514751       0.07926627      -0.72038688       0.04139012      -0.17788418      -0.33814007
Na      14.35391098      33.02098384      27.16461131       1.39864469       1.53042087       1.74994010      -0.04471213       0.03921493      -0.12234645
Na      16.37185294      41.05973541      18.49068314      -0.32904925      -0.36759205       0.09257220      -0.18885100       0.21106693       0.10466547
Na      12.83003055      41.26611230      40.04140525      -0.24232151      -1.23057409       0.38275302      -0.00419388      -0.07714739      -0.03780788
Na      11.21143733      41.88670927      15.74127249       0.12526315       0.30917860      -0.61171212       0.06924043       0.06175327       0.22885692
Na       4.54333338      33.20985895      29.25833260       0.41393893      -0.20981361       2.02581973       0.15141109      -0.16285895      -0.04539621
Na      18.83931387       4.56310152      13.49490347       0.43412175       0.99867612       0.31045006      -0.67124343      -0.16035803       0.12846947
Na      26.65915085       6.10957147      36.41045457      -1.12686556      -0.28933470       0.45312578       0.00012499      -0.20314975       0.25744367
Na      14.51554404      17.41447045      14.61551493       0.39453345      -0.59059686       0.83831111       0.06275227      -0.18725178      -0.03943459
Na      13.38926227      13.12198938      27.81666037      -0.61871595       1.96689399      -0.04708423       0.19577548      -0.43864149       0.28958488
Na      27.51581160      18.37579289       6.71801315      -0.10082748      -0.18044722      -0.45935252       0.07859991      -0.03537579      -0.17204942
Na       9.91680577      31.76843492      34.03496926       0.59868807      -0.92574446      -0.28931001       0.08280633      -0.18953285      -0.36554515
Na      19.07245304      25.20709851      22.05349773      -0.75116071      -0.18761495      -0.00438679      -0.85570967      -0.00590655       0.16132843
Na      18.91623445      38.13896723      42.43016300      -0.35473668       0.74839236       1.19859344      -0.05669329      -0.17560479      -0.23225158
Na      15.62008434      38.85232695       8.96001808      -1.08742423       0.33522580       0.44275571       0.10885763      -0.05867000      -0.00635973
Na      19.24352526      35.04617988      25.86123337       0.97363146       1.62008616      -0.86590417      -0.11246680      -0.04280599      -0.09339700
Na      21.10623638      38.65999193      20.22499498      -0.98763552      -0.21847733      -0.12186674       0.15391988      -0.20883587       0.25849280
Na      20.25987636      45.62991024      35.08524196       0.20279421       0.72988402       0.68964476      -0.09846551      -0.05940790       0.17142807
Na      21.29146494       8.86639792      19.03531200       0.69805020       0.27920725       0.27139572      -0.13926595       0.16692948       0.00872370
Na      22.37905964      11.14470421      32.76576681      -0.91488726       1.05862519       0.74716772       0.66208881      -0.58084047      -0.14181167
Na      35.09979064      -1.14375179       7.96966172       2.24622765      -0.94704547       0.23435329      -0.26160017       0.03381495      -0.32610774
Na      11.03600784      19.35113164      29.74738206      -0.87890092      -0.38131557      -0.06741707       0.25071549      -0.04116602      -0.04883147
Na      28.77377405      15.53535376      21.47413313       0.38735827      -0.62105188       0.06297776      -0.69518715       0.32251731       0.46472588
Na      18.41379854      25.92965966      29.48585661      -1.58417519       1.11312625       1.86768079      -0.01340286      -0.23727196      -0.01836522
Na      27.25690771      22.79867422       9.29813434      -0.03026112       0.01184977       2.31957549      -0.03034448       0.15623946       0.07072648
Na      31.20238541      25.79984059      34.21902338      -0.20474181      -0.83459590       1.17464242      -0.35468823      -0.25138202       0.62864220
Na      25.27436678      28.43738387      19.64052035      -0.00751126      -1.08642179       1.09995025       0.19270828       0.00382601       0.05138022