Na Ta Cl
           1
    40.159523    0.000000    0.000000
     0.000000   42.611954    0.000000
    -0.453812    0.000000   39.604355
 Na               Ta               Cl              
              288              288             1728
Direct configuration=     1
  0.12282125  0.02458059  0.06053204
  0.14066170  0.11682852  0.49388514
  0.13333821  0.13668919  0.99727047
  0.02562155  0.17201299  0.75380688
  0.01691261  0.30285726  0.16388737
  0.95347972  0.43076061  0.64271240
  0.11779412  0.59775953  0.00537312
  0.16767217  0.70036708  0.61596594
  0.12072534  0.48373982  0.12138095
  0.33160492  0.56282280  0.81032457
  0.99209981  0.90378210  0.10422789
  0.85041189  0.75718853  0.45287324
  0.10662528  0.88513756  0.03432662
  0.11772331  0.94743853  0.74961070
  0.28084871  0.12403638  0.12316665
  0.12929018  0.13431599  0.36656341
  0.18082323  0.36946361  0.11559445
  0.37721820  0.37162432  0.49297726
  0.31179867  0.68940990  0.01830197
  0.25804274  0.46959258  0.39810745
  0.39241956  0.74854772  0.38671795
  0.99672728  0.53697736  0.52108200
  0.15408820  0.95251778  0.23491359
  0.21481055  0.80590931  0.46712370
  0.47640544  0.78182206  0.11411645
  0.38340402  0.21463517  0.63491810
  0.35504084  0.38370861  0.13167491
  0.28047333  0.29076824  0.48905221
  0.45435155  0.13804052  0.78264833
  0.49896679  0.47803958  0.47249262
  0.31140586  0.81278029  0.89129416
  0.28839013  0.49316201  0.60246206
  0.40000443  0.72996290  0.23720793
  0.27106181  0.64202340  0.75179204
  0.28326867  0.14894464  0.50145569
  0.38356231  0.03708333  0.75829086
  0.49874579  0.99140546  0.24513693
  0.40289445  0.88221205  0.63935652
  0.46718608  0.32801138  0.37403507
  0.43449826  0.31847774  0.63165575
  0.53431835  0.23397779  0.24562846
  0.59341545  0.31299556  0.72764287
  0.59539028  0.48506368  0.25145157
  0.28835742  0.63904338  0.62716690
  0.44486402  0.70613624  0.03869685
  0.55546188  0.72133611  0.62978041
  0.35179956  0.02726237  0.13144006
  0.52610070  0.05081658  0.50084078
  0.70247130  0.89203521  0.12854710
  0.78822092  0.03751671  0.77671253
  0.58486468  0.24685482  0.09998969
  0.68460125  0.22644431  0.49899891
  0.75777831  0.21331366  0.30134347
  0.58453143  0.42731785  0.78773585
  0.71707949  0.55345701  0.98860191
  0.70000761  0.54931258  0.72872734
  0.62985412  0.64012258  0.01449013
  0.71913394  0.67666211  0.69235084
  0.79808509  0.87932845  0.03608520
  0.98573825  0.81205010  0.78486967
  0.07666071  0.97617289  0.94467666
  0.11353640  0.12504391  0.61962095
  0.86750473  0.19546506  0.13024661
  0.82280298  0.24746834  0.49228650
  0.93550910  0.28485445  0.11168811
  0.52858006  0.45254994  0.65584787
  0.79646653  0.44305580  0.00180737
  0.55607544  0.61601040  0.67989010
  0.87519195  0.77953187  0.16888222
  0.01047108  0.76749183  0.70142523
  0.70604008  0.71620764  0.12134476
  0.89802800  0.79000484  0.66395366
  0.18901625  0.23325885  0.23668041
  0.04377336  0.03401164  0.76894370
  0.27240922  0.28983805  0.25692776
  0.14516741  0.27155945  0.63787003
  0.10499605  0.22421412  0.08017837
  0.07472906  0.34881245  0.57680159
  0.13707083  0.60881093  0.23029102
  0.21440692  0.52682255  0.22866546
  0.29349377  0.98216379  0.24509623
  0.18755989  0.70005534  0.77352314
  0.92070657  0.02081659  0.88492947
  0.98971362  0.77872489  0.50367587
  0.44352465  0.12586768  0.12006125
  0.26295882  0.02459734  0.86631779
  0.09090217  0.43157936  0.98509176
  0.26746830  0.29625252  0.63147694
  0.20832999  0.34234222  0.96999139
  0.13004680  0.37331860  0.26784091
  0.46396781  0.55933727  0.08543953
  0.21389124  0.70609228  0.39358006
  0.35560597  0.32203852  0.93959618
  0.25014731  0.89333788  0.49922884
  0.13608622  0.00735301  0.32227199
  0.37231323  0.05700668  0.63093768
  0.37947716  0.04987110  0.36486006
  0.05791880  0.94522617  0.43143372
  0.46652229  0.33297699  0.25855077
  0.37390326  0.21023442  0.48422700
  0.60098231  0.33615847  0.99325135
  0.43053547  0.46853976  0.64529081
  0.43542831  0.48007921  0.01245372
  0.30736837  0.79097219  0.49951373
  0.62989580  0.82986204  0.13780029
  0.37827283  0.57066139  0.52293739
  0.62111703  0.12323987  0.37208053
  0.67994067  0.87914582  0.59014012
  0.53426014  0.14040056  0.18955081
  0.54328199  0.12427017  0.67435400
  0.69866639  0.24300251  0.14217161
  0.52680767  0.23751480  0.59977637
  0.69549707  0.37470719  0.00506485
  0.60888398  0.32162363  0.47703090
  0.52901210  0.56559855  0.27454960
  0.56953227  0.72361199  0.74826857
  0.62378005  0.83006242  0.37937064
  0.80902123  0.75278474  0.59260889
  0.48891470  0.98612293  0.00708759
  0.56491835  0.81752718  0.73625140
  0.72377286  0.09442986  0.16857055
  0.78510313  0.10785881  0.63018887
  0.84783586  0.33835270  0.12760362
  0.69219051  0.45316794  0.72005832
  0.60764876  0.44190875  0.06724059
  0.63731581  0.45096028  0.47855497
  0.63873615  0.52932512  0.53440126
  0.88170058  0.53804044  0.62934842
  0.91483433  0.77151233  0.93172738
  0.80885374  0.94467072  0.50891375
  0.73898398  0.98844815  0.24416932
  0.72396838  0.85278362  0.75259105
  0.79389620  0.13887145  0.99098305
  0.03529719  0.20387674  0.50624204
  0.83424026  0.42077471  0.20110909
  0.97136770  0.25545818  0.74486128
  0.96692943  0.59891765  0.12374072
  0.88411569  0.35048397  0.61315459
  0.05112508  0.78568124  0.19154308
  0.05253876  0.53305544  0.61807430
  0.14116336  0.77677373  0.99464766
  0.74607402  0.55813459  0.54665086
  0.05427223  0.94882101  0.20254231
  0.97989728  0.09581570  0.64621612
  0.92903041  0.28408106  0.52072643
  0.28229840  0.15394682  0.99453587
  0.01117864  0.18991906  0.36342018
  0.02054372  0.34719519  0.89317776
  0.10590949  0.46030028  0.50203741
  0.99402839  0.49965008  0.02814091
  0.31189331  0.67589386  0.27746618
  0.02631401  0.54349353  0.73946279
  0.23404508  0.87397467  0.59603058
  0.05663512  0.84183992  0.60762654
  0.97292757  0.90474131  0.36726877
  0.04495633  0.87676506  0.89803313
  0.16418688  0.13122023  0.26383882
  0.38627868  0.25557497  0.00817983
  0.17890100  0.33812654  0.45910835
  0.28449699  0.36699539  0.82503943
  0.16059977  0.53736193  0.33766016
  0.23369207  0.63653774  0.96476569
  0.15758845  0.72212052  0.32407893
  0.36517317  0.77492302  0.68589960
  0.41294641  0.96357317  0.46688510
  0.33090160  0.96841634  0.01103541
  0.28366400  0.98298026  0.39746317
  0.12148038  0.77935546  0.73876554
  0.47296247  0.10708501  0.34074292
  0.67422029  0.14337694  0.91935482
  0.36561734  0.40867571  0.36903808
  0.34133880  0.30794151  0.70236368
  0.68707965  0.43123563  0.16962814
  0.25664648  0.74552871  0.85937441
  0.48120980  0.59154994  0.55684527
  0.48313389  0.89502977  0.07135094
  0.39150749  0.91177061  0.22623820
  0.48655607  0.82244950  0.65298964
  0.53133070  0.90725697  0.51067604
  0.51449579  0.07082418  0.88589354
  0.53560357  0.20807302  0.48063684
  0.56660311  0.26153939  0.82732737
  0.87628312  0.97315890  0.20123195
  0.28329202  0.45412449  0.75111392
  0.72261412  0.36457736  0.54221646
  0.46692951  0.60850671  0.74451046
  0.68136894  0.53503001  0.23477555
  0.78672470  0.60546017  0.86402173
  0.63495327  0.66735696  0.49591820
  0.86690747  0.89905318  0.77201334
  0.81757452  0.85458369  0.27925591
  0.74381736  0.92269183  0.92633611
  0.79549392  0.06544749  0.28274607
  0.78106599  0.10562159  0.88617503
  0.79168179  0.29145523  0.38446306
  0.71837370  0.21682442  0.78293153
  0.73895883  0.59676905  0.40654360
  0.81366519  0.45542422  0.69023894
  0.88813379  0.51795626  0.24039201
  0.86953391  0.63682143  0.97443219
  0.78605873  0.74170914  0.34161972
  0.97820755  0.69050411  0.80386220
  0.90418739  0.69975734  0.26363679
  0.60676529  0.92547730  0.79961286
  0.95246269  0.10328761  0.48976670
  0.87972609  0.15503765  0.88627144
  0.94545960  0.99364821  0.28994170
  0.92187099  0.25289088  0.87124469
  0.04167588  0.49252276  0.39151815
  0.95330308  0.42778006  0.89016260
  0.98687563  0.73611374  0.33920267
  0.11098199  0.44592773  0.75415680
  0.06514530  0.67603047  0.36813324
  0.79526359  0.72903999  0.05376577
  0.02942291  0.05318761  0.39079024
  0.95432085  0.82565716  0.03991269
  0.91484405  0.03393773  0.10049083
  0.12242638  0.09838170  0.87169784
  0.89321057  0.49216937  0.50307284
  0.00330094  0.17953348  0.03770781
  0.96241915  0.59400106  0.24486922
  0.87530101  0.53297794  0.00727480
  0.30562145  0.65088249  0.13934316
  0.11476810  0.45969715  0.86064331
  0.94203015  0.69611415  0.58512244
  0.09557608  0.61505453  0.89212693
  0.15314975  0.77130892  0.12841255
  0.28135036  0.88844008  0.82853803
  0.22266408  0.85063001  0.12196176
  0.17914318  0.06585403  0.75805186
  0.04913521  0.35762352  0.36648508
  0.26591796  0.28633142  0.86619278
  0.94098535  0.28268930  0.36742802
  0.10638491  0.28784826  0.75301026
  0.37715109  0.56858054  0.25549149
  0.11691209  0.43761025  0.63015219
  0.12995608  0.58728913  0.52946834
  0.06604787  0.69244333  0.01949026
  0.31008091  0.81481743  0.29181813
  0.26947618  0.52481889  0.00514853
  0.30907416  0.99299559  0.62588816
  0.53856266  0.22615975  0.00181989
  0.78943983  0.11664371  0.48687227
  0.29368830  0.12714353  0.75292827
  0.35421298  0.20544214  0.24422047
  0.40327216  0.48234990  0.88151193
  0.48252475  0.65485074  0.39030118
  0.46838836  0.65127690  0.88973193
  0.47955061  0.79947187  0.39742238
  0.56783916  0.86131758  0.98143947
  0.56733905  0.95877540  0.66309222
  0.40111927  0.89066105  0.85906807
  0.65081854  0.08567139  0.61372886
  0.62266843  0.02055187  0.79433054
  0.72097671  0.39685258  0.30312063
  0.53126639  0.30086001  0.90552003
  0.34863905  0.39277251  0.24989972
  0.70836118  0.39873584  0.85610122
  0.47242582  0.44169803  0.29376541
  0.55551784  0.49884796  0.89964486
  0.56127991  0.75313898  0.23856095
  0.55460234  0.73288716  0.87154600
  0.55958867  0.91822910  0.15093323
  0.56292172  0.94631302  0.91863547
  0.59773386  0.03784131  0.24963181
  0.88883195  0.95917462  0.96010269
  0.85536493  0.35858729  0.36657767
  0.70249564  0.17151308  0.65693428
  0.72417947  0.63893709  0.23024335
  0.44085225  0.34235707  0.02246687
  0.57869234  0.73097379  0.38018430
  0.70584625  0.64618454  0.93520731
  0.86776699  0.12134690  0.38200973
  0.71663011  0.71300848  0.84299507
  0.71931528  0.90003119  0.48322904
  0.88619483  0.02803116  0.75680646
  0.72116061  0.05344713  0.39754160
  0.83832976  0.01137486  0.56969482
  0.02473098  0.19892907  0.23337668
  0.84506277  0.33772165  0.72181901
  0.79118070  0.51928918  0.27588796
  0.86157899  0.36005979  0.87150859
  0.95070627  0.35867998  0.30935659
  0.86820724  0.63818724  0.71713790
  0.87431180  0.59921848  0.44750571
  0.89420197  0.51311892  0.83512430
  0.08555601  0.87702227  0.51567010
  0.77827911  0.79398778  0.86881888
  0.13667419  0.03118290  0.19874722
  0.12251403  0.02459904  0.68638539
  0.11689004  0.18707922  0.19690324
  0.11970459  0.19465534  0.68449889
  0.10504702  0.34346346  0.17716663
  0.09472306  0.36347184  0.70177403
  0.10639266  0.52965878  0.19726179
  0.11514960  0.52762868  0.69543476
  0.13616206  0.68709714  0.17541967
  0.11472043  0.69314848  0.69349522
  0.15011239  0.85975358  0.19361981
  0.13119541  0.86315293  0.69355148
  0.27920205  0.05594032  0.19240497
  0.28919251  0.06012237  0.69005030
  0.27715742  0.21604018  0.19521149
  0.28618790  0.21365474  0.68655275
  0.27065127  0.38778273  0.18972652
  0.28788459  0.38191122  0.68551623
  0.29544620  0.56087061  0.19619352
  0.28811041  0.55961302  0.69097312
  0.29336578  0.73111505  0.17922038
  0.27861611  0.72745244  0.69070168
  0.30411385  0.88655308  0.18610401
  0.29236596  0.88840276  0.68957933
  0.46596589  0.05985566  0.18714357
  0.47196144  0.06327652  0.70169031
  0.45106321  0.23307159  0.18811589
  0.46037050  0.22936912  0.69070974
  0.44818968  0.40667863  0.20603423
  0.44673072  0.38777446  0.69715739
  0.46347303  0.56883352  0.20505839
  0.45590688  0.55230155  0.66721470
  0.47233697  0.72149726  0.18959320
  0.47327422  0.72403578  0.68177938
  0.47856307  0.88553370  0.19687902
  0.47403368  0.89747510  0.70228217
  0.62827178  0.06418170  0.16830678
  0.63675163  0.05574001  0.70219790
  0.61388062  0.24214231  0.19027692
  0.61067347  0.22042841  0.69299500
  0.60023042  0.41015112  0.18814608
  0.60336522  0.39919752  0.69359830
  0.62053769  0.57135891  0.17370242
  0.63762931  0.56096039  0.67004622
  0.64772981  0.72513580  0.19187742
  0.63723946  0.72661924  0.68006555
  0.64561432  0.90275931  0.19444124
  0.63700767  0.89541544  0.70159967
  0.79154027  0.02543604  0.18051343
  0.79107309  0.02695465  0.68438081
  0.77082465  0.19661712  0.17817226
  0.79324923  0.18980850  0.68687690
  0.75942469  0.37059444  0.17793812
  0.76605817  0.36195950  0.68748912
  0.78983375  0.52946272  0.17873451
  0.79872247  0.54325616  0.68298201
  0.81445527  0.69987996  0.20588715
  0.81169486  0.70423069  0.68594368
  0.80881812  0.87039259  0.17767569
  0.80409446  0.87659827  0.70233387
  0.96981038  0.02909215  0.18509892
  0.96614877  0.02098726  0.68048174
  0.95636551  0.20024065  0.16904113
  0.95121958  0.18633298  0.69521461
  0.93100978  0.35908222  0.18494658
  0.94892225  0.34475591  0.69465047
  0.96844562  0.51563095  0.19141613
  0.94621169  0.50951216  0.69381376
  0.98051388  0.68452383  0.19327090
  0.97383625  0.67705726  0.68495517
  0.97545749  0.84489534  0.17460399
  0.97683273  0.85481708  0.68547077
  0.04966754  0.10147240  0.05960156
  0.03549318  0.10423028  0.55717880
  0.02408434  0.27838371  0.04658059
  0.02154691  0.26190112  0.56621234
  0.03405136  0.43053826  0.07216473
  0.03552346  0.43453231  0.55680518
  0.04188202  0.60460023  0.05116147
  0.04004038  0.60593155  0.55481737
  0.06275586  0.77480806  0.05431427
  0.06271483  0.76737400  0.55919855
  0.06125840  0.94536467  0.08112895
  0.05342232  0.94748027  0.56486227
  0.21543493  0.12810786  0.06223773
  0.19943383  0.12488942  0.56065861
  0.20505346  0.28257189  0.06581268
  0.20312509  0.29548357  0.56571429
  0.19903642  0.45334240  0.07034095
  0.20518970  0.44872047  0.58407541
  0.20936577  0.61810610  0.07643399
  0.20271559  0.62880325  0.57000311
  0.22824079  0.79566023  0.03768725
  0.21091440  0.79582642  0.57167131
  0.22169240  0.97258438  0.05869903
  0.21583822  0.96376714  0.55326863
  0.37462355  0.15734591  0.07159283
  0.38056443  0.14109387  0.56266412
  0.35653087  0.31223928  0.07434449
  0.36705674  0.31252483  0.56265331
  0.34664813  0.47477446  0.06697299
  0.37361125  0.46907381  0.55596749
  0.38322335  0.63187010  0.07206121
  0.37435433  0.64753037  0.58474474
  0.39686344  0.81294604  0.05692252
  0.38436183  0.81151137  0.58334609
  0.39908234  0.97047345  0.08160969
  0.38561094  0.97271314  0.57087480
  0.54230281  0.15103234  0.06583584
  0.54186562  0.15400251  0.55629155
  0.52334408  0.33397555  0.07210396
  0.52400576  0.31618322  0.55127036
  0.52542164  0.48921712  0.06538138
  0.53909672  0.46814266  0.55931933
  0.55825854  0.65674932  0.06743162
  0.55172580  0.63596787  0.55401249
  0.56336318  0.81281146  0.06741573
  0.55916695  0.82837761  0.56910745
  0.57326357  0.98107552  0.05691164
  0.54559103  0.98881462  0.57047925
  0.70666459  0.12993132  0.04669853
  0.70438625  0.12815233  0.54014542
  0.69397335  0.29817375  0.06401204
  0.68614610  0.29177083  0.58976391
  0.69814283  0.47307097  0.05873917
  0.70316885  0.45732721  0.56606174
  0.73520565  0.64177207  0.05575408
  0.72409859  0.64588193  0.56073485
  0.71855073  0.78972562  0.06234539
  0.73665766  0.80517783  0.57826940
  0.73268181  0.95605828  0.04324092
  0.71210145  0.96460387  0.56064415
  0.86926236  0.11555507  0.07720759
  0.87195287  0.11016941  0.56811805
  0.85237043  0.27599291  0.05882578
  0.85814078  0.26177221  0.57396982
  0.87759459  0.44450407  0.04763176
  0.87176357  0.42857064  0.56421257
  0.88061828  0.60292106  0.07278902
  0.88310581  0.61321769  0.54986604
  0.88468095  0.76799860  0.05732919
  0.90384635  0.77737133  0.56313545
  0.89249200  0.94492301  0.05808496
  0.88193304  0.92745348  0.57503266
  0.03192443  0.10148886  0.31010621
  0.03436066  0.10408161  0.82606887
  0.02526462  0.26053889  0.31726314
  0.03846359  0.26345998  0.82045124
  0.03528508  0.41690422  0.30111298
  0.02377674  0.44026521  0.82649700
  0.05508115  0.61049257  0.30979153
  0.03859134  0.59711567  0.82013842
  0.07984830  0.77529979  0.31262729
  0.05317469  0.76340301  0.82964983
  0.04740592  0.92961683  0.30579677
  0.04421906  0.93781779  0.80488472
  0.21961411  0.12075621  0.33441823
  0.19165691  0.14101709  0.81229288
  0.18955779  0.28993066  0.33256694
  0.19659980  0.29282749  0.80184946
  0.18994195  0.45091112  0.31184460
  0.20311858  0.44886732  0.81795640
  0.22101009  0.62389136  0.31373528
  0.19878742  0.61217767  0.81710972
  0.23063287  0.78397025  0.30624712
  0.21240931  0.80982582  0.81459897
  0.22140158  0.96115182  0.32479219
  0.22238057  0.97027945  0.80450293
  0.37315516  0.14468997  0.30500378
  0.36907092  0.13828167  0.81814651
  0.35967657  0.30923039  0.33245488
  0.36144684  0.30099435  0.81333866
  0.35845599  0.48612637  0.32811066
  0.36313006  0.46858640  0.81377586
  0.38583856  0.64352508  0.32420280
  0.39323016  0.64416645  0.78698072
  0.40737000  0.80817759  0.31130113
  0.37837282  0.80841547  0.80992263
  0.38294679  0.96621947  0.31638798
  0.39380400  0.97994496  0.83760889
  0.53946480  0.14583305  0.30590583
  0.53474265  0.14835931  0.83116567
  0.54087388  0.30651908  0.32217001
  0.50739607  0.31638927  0.81416897
  0.53729463  0.49237409  0.33985630
  0.53164057  0.50280311  0.80612570
  0.55678983  0.65985468  0.32756917
  0.56498826  0.64465599  0.80259696
  0.56002097  0.82510138  0.31272132
  0.53147922  0.80757843  0.81651405
  0.54598783  0.98676587  0.31951055
  0.54174075  0.98304328  0.81756790
  0.71212018  0.12971632  0.30045987
  0.70946649  0.12920112  0.81060860
  0.71075769  0.31652901  0.30411392
  0.67805632  0.30073170  0.80734796
  0.68831273  0.48048813  0.32192298
  0.69973772  0.48217725  0.81277941
  0.70073585  0.62965992  0.31660111
  0.71208829  0.61859288  0.80199275
  0.73717607  0.80690903  0.30680266
  0.70669921  0.78437405  0.80728830
  0.71263476  0.96715587  0.32589225
  0.72201264  0.95623392  0.82569511
  0.87831649  0.11096655  0.28699294
  0.87373420  0.10365382  0.80494380
  0.86562342  0.27382491  0.29287059
  0.84900528  0.27713359  0.80941541
  0.84626072  0.43932495  0.31459280
  0.85540862  0.43645844  0.80932716
  0.88039195  0.60023012  0.31198792
  0.88185951  0.60767268  0.81839880
  0.91123495  0.78269571  0.31593106
  0.88677429  0.77835952  0.80543459
  0.87351367  0.93738910  0.30714631
  0.90897968  0.95480071  0.82337335
  0.12858726  0.03138060  0.43364468
  0.15293267  0.02820719  0.93758460
  0.11189408  0.19457390  0.43489804
  0.11055759  0.19925654  0.94585473
  0.09164100  0.35645452  0.44390013
  0.10961614  0.35176914  0.93439413
  0.12781803  0.52959931  0.43935506
  0.12362512  0.51678425  0.94792278
  0.13720423  0.69080088  0.44401086
  0.15682614  0.68816348  0.94002437
  0.14582349  0.86056184  0.42946673
  0.13673696  0.87687114  0.92668536
  0.30123651  0.05071145  0.45297662
  0.30081848  0.05855688  0.94529563
  0.28359761  0.21837840  0.43687743
  0.28426782  0.22540804  0.92959321
  0.26724270  0.38944908  0.44857962
  0.28046408  0.39037812  0.93467620
  0.28014623  0.54989000  0.44262444
  0.29613312  0.57204740  0.93020798
  0.31042999  0.71613750  0.45127962
  0.32235048  0.71475817  0.92416567
  0.32250877  0.87821984  0.43987431
  0.30235382  0.89014005  0.94866996
  0.46608895  0.06554373  0.43473561
  0.45804140  0.07030267  0.96575363
  0.45170511  0.22656932  0.42761667
  0.45640899  0.23138091  0.94452618
  0.44700788  0.40015622  0.43969961
  0.44306426  0.39925523  0.94293114
  0.45160999  0.57922230  0.43629855
  0.45441189  0.56733762  0.93674592
  0.47236371  0.74474611  0.46800486
  0.47004886  0.73182547  0.93346666
  0.47402391  0.90468462  0.42873237
  0.47285105  0.89514026  0.94491668
  0.61951191  0.05607064  0.43052057
  0.62792618  0.05905815  0.93156455
  0.62430852  0.22128090  0.42325490
  0.62627715  0.23397944  0.93697776
  0.61693540  0.38776408  0.42572208
  0.60159981  0.40292145  0.93176766
  0.62318372  0.57124953  0.44608024
  0.61713838  0.56047172  0.94701022
  0.65248418  0.74391426  0.44209435
  0.63644471  0.71584402  0.92352020
  0.62351861  0.89600155  0.43809322
  0.63026496  0.87213061  0.91551141
  0.80828050  0.02730063  0.44044281
  0.81241916  0.04288210  0.94131989
  0.78761656  0.19491822  0.42944373
  0.78605942  0.21278592  0.93606242
  0.76111746  0.34865426  0.45428746
  0.76759716  0.37095319  0.93555309
  0.78737298  0.51494001  0.45009959
  0.79238613  0.53248917  0.93085393
  0.80053392  0.68705195  0.41379696
  0.81029538  0.70238634  0.92783113
  0.80487003  0.85369147  0.43975366
  0.80342910  0.85343850  0.93250781
  0.96110235  0.01288565  0.44487340
  0.98572772  0.03226263  0.95456773
  0.94229439  0.17509333  0.43019666
  0.94454056  0.18883033  0.93407944
  0.93402752  0.34779016  0.44554284
  0.93458613  0.34821441  0.94070352
  0.94915330  0.50817288  0.41802862
  0.95322987  0.52691899  0.93565432
  0.96965409  0.67360885  0.42651469
  0.96543354  0.69487718  0.93421878
  0.96867559  0.84957849  0.44275289
  0.97034574  0.86356116  0.94471757
  0.16091870  0.98634675  0.43630142
  0.18524845  0.04929642  0.89661116
  0.07701481  0.23606814  0.42927180
  0.06161690  0.22551622  0.94493100
  0.14058440  0.38750842  0.46911885
  0.08792959  0.34728052  0.87602312
  0.08568791  0.56630157  0.44532703
  0.08441911  0.47622583  0.92590652
  0.14337697  0.68442811  0.37741427
  0.10955961  0.67671556  0.97635370
  0.12947336  0.83890976  0.48697173
  0.15987977  0.91913932  0.90208846
  0.32127569  0.05368493  0.39485567
  0.27228432  0.08163343  0.89842118
  0.24676650  0.26343702  0.43682467
  0.29576172  0.23634209  0.98601098
  0.24274667  0.35359688  0.41227377
  0.28018097  0.33060929  0.93948380
  0.24776621  0.53346867  0.39227247
  0.27812171  0.62401847  0.91094857
  0.26714703  0.75625417  0.46389217
  0.27562441  0.69197712  0.95648178
  0.31440863  0.88046333  0.37997716
  0.25625628  0.85661288  0.94427523
  0.48025109  0.05309543  0.37624975
  0.50927216  0.09479735  0.95892567
  0.43914165  0.23453583  0.48761565
  0.46727051  0.22786334  0.00726633
  0.44780543  0.40636352  0.49684532
  0.41403583  0.39454838  0.99665944
  0.49566771  0.61273845  0.44722177
  0.41871434  0.54094636  0.89562467
  0.51976133  0.77721578  0.45639107
  0.45190892  0.71898353  0.87968562
  0.50543925  0.90596000  0.38153941
  0.42193892  0.87640783  0.92428154
  0.60995503  0.00227235  0.42532204
  0.60887100  0.08576985  0.97705413
  0.58032729  0.18804890  0.41618281
  0.58210251  0.20083518  0.94655896
  0.64825216  0.34530424  0.41278807
  0.60843800  0.38210205  0.88122237
  0.61592927  0.51575764  0.45477832
  0.61127829  0.53294367  0.89517293
  0.65627327  0.72932270  0.38476078
  0.61995603  0.74433001  0.87264078
  0.65858918  0.85961802  0.46890459
  0.62355173  0.92686865  0.92958069
  0.78074143  0.97937267  0.43847574
  0.86863313  0.03108849  0.94610080
  0.75457097  0.21869574  0.38535589
  0.74703573  0.24010937  0.90126778
  0.71694522  0.37854185  0.47185363
  0.76431451  0.38939641  0.99763783
  0.79517184  0.54117657  0.39591280
  0.82350306  0.57720069  0.93445578
  0.79622514  0.66958061  0.36051722
  0.77611738  0.65251939  0.92157999
  0.86413385  0.83437483  0.45327002
  0.81461236  0.90715234  0.93213260
  0.96368724  0.99589476  0.49759608
  0.95398986  0.05419833  0.99903893
  0.93941646  0.23043488  0.42805736
  0.93869845  0.18496042  0.87577228
  0.97361733  0.30529312  0.45467634
  0.89559612  0.31190834  0.92085151
  0.90097868  0.48006291  0.42314293
  0.99377153  0.48608771  0.93602151
  0.01350794  0.63764204  0.43001612
  0.95258160  0.63998116  0.93575305
  0.93355645  0.86409790  0.39881143
  0.96487866  0.83995856  0.89261493
  0.02206342  0.11754032  0.36800705
  0.07523467  0.14073192  0.84496431
  0.00563910  0.25800093  0.37869936
  0.97819982  0.26493186  0.82055343
  0.99645618  0.39890687  0.34617080
  0.08038610  0.41720412  0.81089037
  0.06296625  0.60794330  0.36965813
  0.00279302  0.55531270  0.80994541
  0.04226175  0.79096315  0.35527314
  0.04334906  0.82175683  0.83503155
  0.01675690  0.95347015  0.34902871
  0.01268408  0.89216756  0.81517274
  0.26651290  0.15258735  0.34309981
  0.18935141  0.12909505  0.75204555
  0.17014888  0.28895031  0.38625921
  0.16403586  0.26176584  0.76483957
  0.13751841  0.48202699  0.30649543
  0.16905121  0.41759726  0.85362280
  0.17831144  0.65657712  0.28547372
  0.15066311  0.58691425  0.80346638
  0.25544668  0.82449698  0.33903084
  0.25991977  0.77825429  0.79490285
  0.16468669  0.94405703  0.31854036
  0.23551029  0.02569170  0.79914494
  0.42158071  0.16234200  0.33448432
  0.32437701  0.16918473  0.79382189
  0.30992716  0.28999781  0.35417107
  0.32845641  0.25220696  0.81782530
  0.37505528  0.53706969  0.33412306
  0.31466802  0.50246201  0.79444337
  0.43227093  0.67490167  0.34455826
  0.40605544  0.58653066  0.78720546
  0.44441884  0.85083271  0.31736037
  0.32967043  0.83786494  0.81674546
  0.33736602  0.93816008  0.29438081
  0.34994992  0.01418277  0.82540101
  0.55881845  0.16751128  0.25337574
  0.52084640  0.17099038  0.77716917
  0.59643976  0.31686323  0.32576186
  0.48504995  0.32572038  0.86776820
  0.48576285  0.51818502  0.33986069
  0.58137044  0.47346840  0.82988899
  0.54404877  0.67717313  0.26873698
  0.60202156  0.61327812  0.82953399
  0.53146615  0.86816556  0.30482319
  0.55490450  0.85384268  0.78867374
  0.50900687  0.02773071  0.30302327
  0.51295790  0.98183493  0.86641690
  0.74087805  0.08035733  0.31190553
  0.73446411  0.17631385  0.83064748
  0.69051290  0.36034160  0.34127383
  0.67141184  0.33529389  0.85664091
  0.71861784  0.48499126  0.27056241
  0.66099409  0.43805195  0.82507554
  0.75177084  0.60601344  0.33780323
  0.72025131  0.61489195  0.74261787
  0.72528403  0.75333926  0.31572673
  0.70254079  0.78786319  0.74943395
  0.76537104  0.99773805  0.31923636
  0.70684618  0.90314298  0.81900843
  0.87537838  0.06108075  0.27158974
  0.82949921  0.12582375  0.84101918
  0.90239289  0.25870542  0.25462129
  0.88144184  0.22882550  0.82793884
  0.82959128  0.49147171  0.32622768
  0.90515389  0.46911351  0.79558737
  0.93842974  0.59389476  0.33188635
  0.92895099  0.58076995  0.79890586
  0.89483002  0.79801165  0.25874886
  0.91292765  0.82974813  0.79978521
  0.92842307  0.94327502  0.32930200
  0.93199299  0.92855754  0.77688057
  0.09160691  0.08247715  0.02477653
  0.08144440  0.13782782  0.56394889
  0.96393730  0.28118108  0.05590668
  0.00044812  0.31254954  0.55696900
  0.05654253  0.43105225  0.12764159
  0.03617608  0.44367049  0.49621645
  0.98657965  0.60630029  0.04648587
  0.01778400  0.65230384  0.57857807
  0.07736475  0.78654968  0.10854587
  0.09912558  0.81377731  0.55940745
  0.06965149  0.95131855  0.02194734
  0.07697847  0.99478328  0.55674809
  0.25627992  0.16942815  0.05777562
  0.24896333  0.15417003  0.56396688
  0.16021384  0.25955512  0.03607454
  0.15473967  0.25946497  0.56477358
  0.16073074  0.43420328  0.11649896
  0.20636850  0.46912586  0.63972318
  0.18129017  0.59169831  0.11758395
  0.14591976  0.63182148  0.58660332
  0.19554720  0.84482959  0.04867827
  0.24148183  0.82990902  0.53545386
  0.23099135  0.92072226  0.06730203
  0.16831801  0.99413593  0.54652210
  0.36200246  0.16814559  0.01710755
  0.35222185  0.18837571  0.54823216
  0.31912763  0.35589240  0.07392166
  0.36431952  0.31441148  0.62227787
  0.36637685  0.47776478  0.01142447
  0.39988495  0.47570492  0.50265494
  0.43937803  0.64284527  0.06297750
  0.41574620  0.60764136  0.57196357
  0.35481946  0.77409511  0.04854113
  0.32734397  0.79559261  0.57082978
  0.35192821  0.94115365  0.07049347
  0.35201509  0.95489327  0.52805493
  0.53762623  0.09891663  0.06351392
  0.57932258  0.19669044  0.57132528
  0.52099482  0.31733777  0.13170957
  0.47690913  0.28422351  0.56094027
  0.49083951  0.50771787  0.11041746
  0.55278083  0.50732441  0.60385144
  0.56395231  0.64528088  0.00870321
  0.53003796  0.62315419  0.61684442
  0.52728713  0.85058316  0.03472012
  0.50442942  0.82631405  0.54894613
  0.55527172  0.98677514  0.99948253
  0.50650253  0.03050400  0.55766186
  0.74484789  0.09400131  0.02293829
  0.74547236  0.16690671  0.52632200
  0.65661512  0.25406176  0.07666309
  0.67292598  0.34695594  0.59846148
  0.75566575  0.45109763  0.07137217
  0.69211738  0.47706920  0.50874981
  0.76977791  0.67290990  0.09217905
  0.72773309  0.64190979  0.61844807
  0.68205523  0.74651411  0.05897046
  0.70041946  0.76366185  0.56939154
  0.76777670  0.97387758  0.08166026
  0.70282041  0.98669784  0.50750215
  0.81401094  0.12578401  0.06086290
  0.82515978  0.14633691  0.57361825
  0.89549640  0.24174697  0.08564524
  0.80544240  0.23671444  0.56334990
  0.91483127  0.41918437  0.08310702
  0.82255199  0.45437339  0.57111031
  0.86933131  0.59859924  0.12848531
  0.90981775  0.57366855  0.51595147
  0.93746396  0.76331597  0.03743621
  0.94436445  0.77002006  0.60602498
  0.91964054  0.89769963  0.06528296
  0.93489112  0.90860266  0.56609840
  0.10704081  0.98299489  0.17911359
  0.11677198  0.04072778  0.74380390
  0.07545681  0.14951540  0.20860147
  0.09934066  0.24794572  0.68294249
  0.10106929  0.35243338  0.11979886
  0.05255721  0.32902883  0.68743801
  0.15483198  0.52658697  0.16220924
  0.07671095  0.56687741  0.68107805
  0.10162358  0.73198527  0.17090863
  0.16531327  0.66589222  0.68201558
  0.18909805  0.81745190  0.20033385