Na Ta Cl
           1
    40.159523    0.000000    0.000000
     0.000000   42.611954    0.000000
    -0.453812    0.000000   39.604355
 Na               Ta               Cl              
              288              288             1728
Direct configuration=     1
  0.84994687  0.90043093  0.25293361
  0.87763586  0.02415716  0.72670574
  0.03323915  0.06304420  0.99727172
  0.01303502  0.22487569  0.63188476
  0.12707393  0.46523473  0.99550369
  0.03744165  0.31903037  0.74259922
  0.05289172  0.45110094  0.19703842
  0.04251797  0.55048828  0.53315143
  0.01760836  0.74561357  0.00451014
  0.04471692  0.72397770  0.62961394
  0.06996487  0.93913367  0.21065328
  0.07146311  0.87769214  0.63789244
  0.12462746  0.01983171  0.10057854
  0.14692270  0.01955701  0.55149677
  0.25439737  0.30558817  0.22652640
  0.19897921  0.21930408  0.64950470
  0.28098008  0.36710221  0.04434080
  0.11132300  0.27702448  0.62281805
  0.13908518  0.49940797  0.27674711
  0.22477629  0.55672751  0.61840870
  0.29071209  0.61587426  0.23889265
  0.23469661  0.55772519  0.74155693
  0.20980800  0.77649572  0.16765764
  0.21407711  0.87991102  0.49822623
  0.20616169  0.86812878  0.99639946
  0.32734909  0.08925137  0.64330771
  0.36468888  0.20877013  0.99827394
  0.45741408  0.31115982  0.61761456
  0.41094498  0.45530496  0.20664249
  0.39593003  0.38935708  0.74622258
  0.26893715  0.43402064  0.26446146
  0.34189637  0.56983969  0.59207506
  0.45152140  0.77784585  0.11973497
  0.51129504  0.71667262  0.50473693
  0.37856859  0.77190838  0.22510863
  0.37607868  0.87984491  0.62383819
  0.52038283  0.02671633  0.01815607
  0.51699565  0.16009350  0.47861287
  0.62649979  0.45230771  0.22082318
  0.60828453  0.27418194  0.58949725
  0.62830050  0.46467920  0.00913471
  0.62414428  0.33503325  0.76571024
  0.46525120  0.45434589  0.13108637
  0.48794976  0.48130025  0.62671627
  0.57246980  0.70410249  0.06255333
  0.54423885  0.73754360  0.70591679
  0.62402240  0.89208603  0.06274317
  0.57714232  0.87672655  0.61826996
  0.71321255  0.05289331  0.13026587
  0.68012491  0.01285826  0.83322323
  0.65361400  0.28401090  0.15430610
  0.76642563  0.04964044  0.58705189
  0.77725301  0.30319805  0.11672472
  0.64260672  0.46767885  0.48868456
  0.71361989  0.54217719  0.13314256
  0.73150712  0.51369380  0.59545658
  0.69826836  0.69104939  0.14343215
  0.80095050  0.77679862  0.78210750
  0.73218396  0.86356438  0.06331910
  0.70452624  0.83046151  0.63585879
  0.87250823  0.06427289  0.14108584
  0.81270268  0.96541894  0.48027956
  0.89163132  0.26066755  0.23466764
  0.80842679  0.14728448  0.63628864
  0.78060163  0.51415532  0.04565321
  0.79834800  0.28658455  0.61929985
  0.88357371  0.53747043  0.12927897
  0.88183163  0.53646374  0.64056225
  0.93835149  0.70973494  0.09163124
  0.77430881  0.62414292  0.74352896
  0.85977982  0.81740592  0.94780369
  0.81619799  0.93443294  0.61321049
  0.12037684  0.18989920  0.31362195
  0.11149401  0.14257537  0.50866316
  0.02691718  0.19986321  0.12324867
  0.20736028  0.36780383  0.64484264
  0.13986647  0.42997790  0.10864664
  0.14613189  0.51653474  0.56337563
  0.05442453  0.61268500  0.17956669
  0.16314655  0.65431425  0.62431407
  0.13765614  0.78237811  0.97141637
  0.14391579  0.79218161  0.72740027
  0.04148753  0.79258833  0.13456618
  0.20069743  0.98270859  0.67504511
  0.28086302  0.12844776  0.11975554
  0.20750127  0.09719856  0.71524714
  0.02563241  0.23483803  0.00199254
  0.27804973  0.28771445  0.75424752
  0.25848160  0.23499954  0.04141070
  0.40623774  0.52996063  0.50621444
  0.23175002  0.55673576  0.99378155
  0.35816900  0.69883640  0.61412612
  0.28969605  0.69918676  0.06304563
  0.29741544  0.79420598  0.63848816
  0.28292822  0.94693587  0.13726517
  0.10762502  0.08172421  0.79111166
  0.45277192  0.21151155  0.08182468
  0.43116256  0.10481809  0.73390556
  0.48965887  0.30462222  0.15371281
  0.34819854  0.25980787  0.39357674
  0.39327470  0.54012883  0.11237052
  0.33051182  0.47560923  0.63968440
  0.46313161  0.64354753  0.99473654
  0.55591513  0.61119405  0.63716490
  0.40836797  0.89097105  0.01461339
  0.44055487  0.95487281  0.48317598
  0.41581582  0.95281050  0.14430948
  0.47774426  0.93514696  0.75070820
  0.46699914  0.13077480  0.21504182
  0.67032939  0.09105145  0.65731034
  0.61937342  0.14874439  0.09664857
  0.60611305  0.16856938  0.58679193
  0.69852942  0.36938668  0.24287895
  0.75439657  0.37248814  0.76949026
  0.60398362  0.58667950  0.10941249
  0.68289475  0.63910562  0.64238988
  0.49083363  0.87300654  0.07834756
  0.62543561  0.78929748  0.48594791
  0.50799416  0.96717687  0.20983863
  0.78592625  0.78767419  0.52168909
  0.78996764  0.12732168  0.16425324
  0.62559989  0.03267016  0.57908201
  0.96657994  0.29663264  0.10411900
  0.87582357  0.36475483  0.74335405
  0.77533493  0.45248413  0.22305273
  0.85626653  0.37885141  0.49369122
  0.80829330  0.73072313  0.08159334
  0.87442274  0.54143740  0.51629630
  0.83244304  0.78728287  0.15825966
  0.87609900  0.69601302  0.64389462
  0.79646190  0.96662701  0.12246532
  0.95787877  0.95234257  0.62893978
  0.05399129  0.13160523  0.21995328
  0.03961365  0.15630116  0.42370223
  0.81287711  0.21358362  0.03811935
  0.03647478  0.37949638  0.55062240
  0.89892671  0.32806667  0.97365870
  0.04841349  0.48893756  0.67605959
  0.07154831  0.56312673  0.07180233
  0.88864836  0.70277479  0.51370265
  0.96080521  0.75821528  0.28119925
  0.04532464  0.70847692  0.75476285
  0.95852118  0.96617201  0.15953779
  0.95817983  0.98736075  0.49714570
  0.21361492  0.20602113  0.24756121
  0.04056897  0.21546068  0.88474181
  0.10481342  0.30577575  0.40614071
  0.07481445  0.40779120  0.77963809
  0.16795155  0.46916707  0.41759678
  0.04549060  0.53925754  0.92257362
  0.20896727  0.67209880  0.26339706
  0.02651730  0.68089214  0.89490262
  0.09404586  0.80726839  0.27071320
  0.12015351  0.72311806  0.83713605
  0.14646365  0.93085405  0.37228488
  0.08447082  0.95120312  0.98416860
  0.25425438  0.13985632  0.49665462
  0.37750613  0.21989127  0.88005715
  0.37357770  0.18557539  0.48936736
  0.12275543  0.29018277  0.89621202
  0.40067937  0.43835126  0.41400020
  0.35128168  0.43243943  0.95879518
  0.11304977  0.63383282  0.39835469
  0.27315872  0.57677875  0.86890282
  0.29036480  0.80219475  0.51028408
  0.28740220  0.79278087  0.89332444
  0.29938220  0.96347952  0.37974318
  0.23356900  0.04562558  0.85636631
  0.45952520  0.05585456  0.32327939
  0.28088158  0.16445506  0.82213988
  0.41202336  0.30764103  0.50835710
  0.43916156  0.25721468  0.77814396
  0.48712353  0.38535129  0.34872952
  0.53479947  0.37463938  0.86547118
  0.45163230  0.73769797  0.30886836
  0.49141872  0.58311979  0.87730317
  0.38878755  0.77659763  0.44377769
  0.38305616  0.71266584  0.76721050
  0.57267658  0.05756891  0.24722587
  0.43895114  0.01514574  0.85371876
  0.62610025  0.10161653  0.36466685
  0.62560518  0.21064367  0.80176764
  0.61919222  0.27063083  0.35860471
  0.44451134  0.31908717  0.99211669
  0.56676423  0.45337999  0.39402646
  0.64369806  0.45807439  0.88785309
  0.59861325  0.62922369  0.37246223
  0.61850710  0.55416324  0.81247565
  0.65826733  0.88772046  0.27163909
  0.53809668  0.70317935  0.88793918
  0.50747878  0.04170516  0.60682520
  0.56490923  0.85340202  0.76374314
  0.86565714  0.20876878  0.49058402
  0.89909791  0.12320578  0.95247862
  0.69664042  0.34491977  0.38512372
  0.62525012  0.30311954  0.00521980
  0.87996007  0.46743215  0.38722510
  0.56372646  0.51553358  0.73285882
  0.62989686  0.64186700  0.26078852
  0.81789563  0.61364730  0.97960791
  0.61831592  0.79223502  0.36316103
  0.71450256  0.76572655  0.92628541
  0.61923785  0.98188659  0.36015189
  0.76609182  0.06734190  0.85083709
  0.95584437  0.13400708  0.50209983
  0.97715504  0.99942942  0.76834804
  0.92687625  0.35967040  0.30658860
  0.90620903  0.24737077  0.87629697
  0.95947711  0.45081787  0.14017213
  0.91272615  0.48481438  0.73696279
  0.86555752  0.55829639  0.36551129
  0.97125289  0.63724773  0.00375173
  0.96128774  0.79978868  0.52967743
  0.87047887  0.90057586  0.90425283
  0.98342285  0.89209221  0.31676184
  0.98281584  0.95830281  0.87838692
  0.02876923  0.03400652  0.38366609
  0.04689659  0.12217788  0.92042823
  0.87989476  0.22457923  0.36828893
  0.83460882  0.18860725  0.73885721
  0.11462412  0.30034812  0.25769037
  0.05538039  0.35867260  0.01456730
  0.05846612  0.54031813  0.36493382
  0.14022800  0.47614242  0.88607789
  0.96932122  0.63038704  0.25811687
  0.94179610  0.80969912  0.74547197
  0.03728415  0.87891485  0.49110055
  0.03790124  0.88173815  0.78312684
  0.21951523  0.06661408  0.23154347
  0.20374523  0.00927252  0.99758055
  0.30922749  0.34307508  0.53905833
  0.26800334  0.15024799  0.98936293
  0.11093775  0.39378940  0.31587764
  0.24635579  0.39257468  0.77440157
  0.36852948  0.53113171  0.39534657
  0.27722182  0.59864477  0.11146753
  0.19415707  0.78169868  0.43180531
  0.23435188  0.70308662  0.85077209
  0.23285519  0.85956316  0.30612833
  0.29472297  0.89305259  0.80399964
  0.35885942  0.04650222  0.30176349
  0.36902204  0.10933794  0.94876207
  0.31005512  0.01821569  0.52152304
  0.52732085  0.18341893  0.76848051
  0.45737402  0.28324793  0.27089399
  0.37350602  0.39868017  0.85845389
  0.24502766  0.63270825  0.43311426
  0.40341035  0.54962394  0.77570182
  0.33333802  0.71453563  0.31635508
  0.38949203  0.72300800  0.00141951
  0.41407349  0.94037668  0.39266725
  0.37444022  0.86533871  0.89075293
  0.30000154  0.13152896  0.37018172
  0.54162064  0.01377799  0.89054756
  0.33699015  0.21305588  0.29281392
  0.53866847  0.20867331  0.98869069
  0.55266520  0.53770855  0.52809718
  0.54921243  0.33841078  0.65130361
  0.45197421  0.62558114  0.37267612
  0.53593988  0.49378311  0.95270393
  0.51876076  0.79904430  0.42085431
  0.70795188  0.68377974  0.85478875
  0.63203927  0.80484472  0.14871532
  0.68688830  0.92887647  0.94646303
  0.88883446  0.06560069  0.25943391
  0.62140703  0.12060747  0.98196493
  0.66494602  0.17768144  0.28092886
  0.75999758  0.18068510  0.85339653
  0.78379441  0.29577130  0.50327306
  0.72535441  0.36984653  0.89805923
  0.65185469  0.52937348  0.33308388
  0.73253396  0.47657580  0.71305157
  0.74154725  0.67749946  0.34109104
  0.62673298  0.79107844  0.86615425
  0.69217672  0.97807723  0.48409626
  0.77668301  0.96032902  0.86347893
  0.86691646  0.92607668  0.40516846
  0.94520371  0.13249091  0.73682154
  0.78841413  0.16535866  0.34674976
  0.79201557  0.29966640  0.89869769
  0.95452053  0.46544818  0.47191035
  0.91183624  0.46110089  0.94204860
  0.03674779  0.68908423  0.50634927
  0.89317896  0.55469219  0.87081058
  0.85192952  0.73412793  0.34682957
  0.96240313  0.62576151  0.77994951
  0.75795262  0.85776598  0.31463431
  0.87079782  0.02486489  0.00570920
  0.13413512  0.04905454  0.19306170
  0.11502329  0.03972488  0.68220454
  0.13672604  0.20889465  0.18774998
  0.09391789  0.21515028  0.69530287
  0.12575444  0.38093593  0.18519860
  0.12482711  0.38945017  0.69781981
  0.13163996  0.54393905  0.19455687
  0.15414491  0.54716688  0.69175384
  0.11136130  0.70836702  0.17844491
  0.12670012  0.71462929  0.68709489
  0.11516770  0.86815547  0.19043859
  0.13830808  0.88264301  0.69934162
  0.30293586  0.05373481  0.18862835
  0.27920789  0.03663768  0.68615748
  0.30180675  0.21327334  0.18634799
  0.26938215  0.20765777  0.70906082
  0.27859959  0.38778515  0.18780626
  0.29596974  0.37254384  0.68779802
  0.29676406  0.53833362  0.19227285
  0.31949528  0.54424523  0.68955005
  0.27055089  0.70341221  0.20478771
  0.30493788  0.70951616  0.68763162
  0.27270870  0.87129504  0.18673220
  0.30551302  0.87250278  0.69161162
  0.46663940  0.05491531  0.17510861
  0.44727667  0.02960110  0.69232329
  0.46689115  0.22416476  0.19680548
  0.43913786  0.19803810  0.70321568
  0.42829217  0.37134752  0.18763502
  0.46585677  0.36475046  0.69970817
  0.46344104  0.54315808  0.17404191
  0.48672643  0.55278693  0.68195386
  0.44086537  0.70668659  0.18546232
  0.45612265  0.71496471  0.67999469
  0.45200834  0.87118256  0.19184472
  0.47597307  0.87256525  0.68227069
  0.62898675  0.04382319  0.18080352
  0.61217521  0.02344801  0.68788716
  0.63281683  0.20325531  0.17650389
  0.59968682  0.20865796  0.68166816
  0.60812547  0.36286364  0.18651722
  0.63766251  0.38338073  0.68040349
  0.61608455  0.52309204  0.17430311
  0.65497154  0.53006309  0.68826624
  0.60693548  0.69526234  0.18155951
  0.61740133  0.68833979  0.68769737
  0.61948312  0.87674121  0.19234912
  0.63535241  0.85082892  0.69615168
  0.79763274  0.03589549  0.19521837
  0.78105158  0.04239827  0.67920910
  0.78717399  0.20590213  0.19449320
  0.75849073  0.21276139  0.69327505
  0.78846416  0.37627450  0.17164741
  0.79247329  0.37343313  0.67580710
  0.79861298  0.54399243  0.18732349
  0.80746236  0.53419389  0.69496359
  0.79509031  0.70879724  0.17142200
  0.77002299  0.69675752  0.69036810
  0.79477195  0.87455525  0.18288964
  0.80931391  0.86964114  0.68566799
  0.97453832  0.04272184  0.19527199
  0.95704950  0.05717415  0.67867274
  0.96128269  0.20647632  0.19398800
  0.91332429  0.22701391  0.68097185
  0.97112777  0.38176640  0.20209818
  0.95950450  0.37977989  0.70225147
  0.95902370  0.56417790  0.18800392
  0.97186493  0.55623231  0.68843392
  0.94529912  0.73206714  0.18631797
  0.95037584  0.72484553  0.69634171
  0.96318530  0.88105471  0.19308688
  0.96376383  0.89105048  0.69366873
  0.03343864  0.12418508  0.06381098
  0.02656557  0.13985172  0.56311409
  0.05421867  0.28634733  0.06937782
  0.02017686  0.30142468  0.57298411
  0.03999003  0.47957934  0.06665187
  0.04749622  0.46246281  0.58499376
  0.05449724  0.64684993  0.05644640
  0.05390207  0.62651178  0.58088769
  0.01480208  0.81864956  0.05448527
  0.04815301  0.80201357  0.56899519
  0.04122230  0.96927472  0.06512463
  0.05093281  0.96804853  0.55276533
  0.20127141  0.11397305  0.06337681
  0.18888423  0.13691653  0.58151401
  0.21632725  0.29723403  0.07963151
  0.19721230  0.29670852  0.57703010
  0.21415795  0.45759698  0.06443100
  0.22477800  0.46303962  0.55754988
  0.20250637  0.61646295  0.07070542
  0.23488426  0.63377737  0.56927636
  0.18793993  0.78121658  0.05334641
  0.21381406  0.80010051  0.57468526
  0.20470110  0.94943514  0.06779305
  0.22401942  0.96075660  0.56151433
  0.37313814  0.13200133  0.06244821
  0.36418082  0.13039271  0.56842599
  0.37157805  0.29199352  0.05065510
  0.36546238  0.28042535  0.59238382
  0.37238438  0.45218605  0.04990001
  0.40485384  0.45070309  0.56996025
  0.36833430  0.62862047  0.06081852
  0.40159715  0.63409954  0.54872307
  0.35487903  0.78797143  0.06531562
  0.38738329  0.79949868  0.55365113
  0.37461831  0.96206536  0.06948493
  0.38199486  0.95546153  0.56942241
  0.53551343  0.12900789  0.05242244
  0.52026412  0.12763659  0.56839347
  0.52962089  0.29575076  0.04646915
  0.52370933  0.29347820  0.55250193
  0.53131693  0.44451222  0.05512643
  0.56499299  0.45972600  0.56603853
  0.53552713  0.61450846  0.05680180
  0.56787875  0.62296062  0.54568731
  0.53619861  0.79017890  0.07752694
  0.53587205  0.78575946  0.55751524
  0.54670822  0.96088858  0.06432030
  0.54210694  0.94931260  0.55494117
  0.71931651  0.12048732  0.05641799
  0.69792250  0.11452465  0.55174181
  0.70417826  0.28349432  0.05969609
  0.69149160  0.28524060  0.55161285
  0.70498643  0.44930158  0.06954088
  0.72223683  0.43689122  0.55019455
  0.71028084  0.62058664  0.07249462
  0.72599036  0.60186355  0.56057550
  0.70220643  0.78377098  0.06969608
  0.70171442  0.77176010  0.55499219
  0.71832896  0.95653442  0.06764007
  0.71433266  0.93926514  0.56890767
  0.87872756  0.12672971  0.07686778
  0.84448561  0.13845204  0.54755364
  0.88435970  0.29668343  0.07793723
  0.86887938  0.31037151  0.54685546
  0.88300361  0.45969184  0.07540365
  0.88101615  0.46467149  0.57495800
  0.88490772  0.63311012  0.06664668
  0.87903013  0.63339713  0.57633865
  0.86533827  0.81705940  0.04901722
  0.87219752  0.80370858  0.56301137
  0.88402098  0.96078495  0.06081575
  0.88550369  0.96068877  0.54972847
  0.05137316  0.13050203  0.32259537
  0.03384391  0.13889842  0.81367087
  0.03670917  0.29289693  0.30849652
  0.01875766  0.29879003  0.83966817
  0.02484671  0.46977049  0.31959901
  0.04666030  0.47795814  0.82977921
  0.06209273  0.63785070  0.30911011
  0.06201009  0.62855219  0.81508416
  0.03416833  0.78474084  0.33291304
  0.03640446  0.79789798  0.81309356
  0.05999913  0.95496143  0.32964697
  0.06092536  0.97298968  0.81519328
  0.22080385  0.13128903  0.31468371
  0.18990954  0.12623590  0.81142691
  0.21936318  0.29284339  0.31578066
  0.18555095  0.30603162  0.81235045
  0.20873175  0.44486847  0.32982208
  0.22029745  0.46651378  0.81033018
  0.20527348  0.59522840  0.32664516
  0.22606907  0.63052621  0.79329503
  0.19084393  0.77693886  0.32846864
  0.21774631  0.79009069  0.81595074
  0.21252062  0.95186492  0.31188712
  0.21396412  0.96083522  0.82206056
  0.38573902  0.13591984  0.31953165
  0.37404543  0.10061442  0.81887908
  0.37509816  0.31248917  0.31652566
  0.35613532  0.29615153  0.81816811
  0.35980960  0.47599952  0.31778955
  0.38618901  0.46700562  0.80313914
  0.37941504  0.62470945  0.31015014
  0.39493668  0.63210704  0.81275631
  0.35341388  0.80633910  0.31157883
  0.37845065  0.79474207  0.80744717
  0.38326571  0.96503425  0.29578091
  0.37985037  0.95322740  0.81535196
  0.54605970  0.13197220  0.31142360
  0.54791472  0.10999169  0.81304202
  0.53915660  0.29712865  0.33390831
  0.55038965  0.28479617  0.82334999
  0.51105940  0.44540854  0.30117900
  0.55365787  0.46314514  0.81253179
  0.54109656  0.61544739  0.29712156
  0.55755045  0.63061362  0.82092789
  0.53282476  0.77976115  0.30820932
  0.54113031  0.78238668  0.81037080
  0.54707214  0.95912014  0.30658232
  0.54519612  0.94753580  0.81635261
  0.71123631  0.10687752  0.32024386
  0.69951146  0.10962571  0.79930243
  0.70991450  0.28911020  0.29602952
  0.70257440  0.29056632  0.81510379
  0.69544963  0.45334811  0.30237121
  0.72586181  0.44161687  0.82544095
  0.71060346  0.60931050  0.28713397
  0.71653326  0.60107486  0.83226359
  0.71326156  0.77350230  0.28858971
  0.71099349  0.77004510  0.82197866
  0.72111042  0.94943678  0.31351424
  0.71267208  0.94275272  0.79959743
  0.87199868  0.14057580  0.31456054
  0.86638161  0.14203523  0.80392236
  0.85503507  0.31256850  0.30487446
  0.86513337  0.30684411  0.82127398
  0.86956296  0.48698715  0.29725078
  0.87985516  0.46487045  0.81923538
  0.88329299  0.65155920  0.30798391
  0.88206027  0.62757564  0.82085835
  0.86299288  0.81224273  0.32111655
  0.87548326  0.80604872  0.81799530
  0.89067900  0.97343609  0.31367020
  0.87422634  0.97726210  0.80406323
  0.13152852  0.05501309  0.44252252
  0.12714309  0.04305619  0.93868641
  0.12654852  0.22263053  0.43733549
  0.13342724  0.21224973  0.94110093
  0.11692641  0.37934538  0.44593774
  0.13421533  0.38234449  0.94669540
  0.11696614  0.54657993  0.44860866
  0.14009618  0.55636237  0.94223928
  0.12279485  0.70062196  0.45729644
  0.11918128  0.69910790  0.93992299
  0.13197348  0.87030309  0.44242580
  0.12999954  0.87504115  0.93220151
  0.28164560  0.04608571  0.43610226
  0.30306924  0.03752105  0.94828717
  0.27686393  0.21527117  0.45096173
  0.27701889  0.22410899  0.91754392
  0.30435093  0.37313274  0.45368039
  0.28549720  0.37653818  0.92519177
  0.29550490  0.55308566  0.45370311
  0.30163024  0.53322447  0.93382407
  0.29028694  0.71573976  0.45131067
  0.28036423  0.69942983  0.93859624
  0.30633485  0.87660574  0.43949689
  0.30675636  0.87323286  0.94808310
  0.43943340  0.03848126  0.43891117
  0.46463632  0.04084481  0.95458075
  0.44510110  0.21325591  0.42600836
  0.45164868  0.20761359  0.92118803
  0.45868436  0.38862506  0.45591855
  0.46341916  0.37123859  0.91721798
  0.48400522  0.53898284  0.43233336
  0.45079661  0.53614651  0.93814042
  0.45650147  0.70471028  0.42739364
  0.45705918  0.71954990  0.94387865
  0.47560702  0.87512110  0.41884657
  0.46517878  0.87968196  0.94256985
  0.61020785  0.03195185  0.44120166
  0.63921530  0.03126041  0.93672527
  0.60966860  0.19565279  0.43901608
  0.62036488  0.19095322  0.92807436
  0.61598623  0.37004961  0.43199422
  0.62963986  0.37035332  0.94058203
  0.65009286  0.53162655  0.42602631
  0.63690370  0.54122978  0.94923542
  0.62578823  0.69714311  0.42705640
  0.62091466  0.70221529  0.95059127
  0.62711525  0.86044645  0.42463770
  0.62347726  0.86188820  0.94598120
  0.78751487  0.02653713  0.42563904
  0.79660453  0.04752115  0.93598828
  0.76079233  0.22054794  0.42737820
  0.77954066  0.20910996  0.94172176
  0.78336975  0.39087207  0.42413931
  0.79941682  0.37695067  0.95456774
  0.79560769  0.55053511  0.42966964
  0.79453003  0.54013916  0.94524891
  0.78511933  0.70775651  0.42689726
  0.78789424  0.70590254  0.95441981
  0.78215138  0.86995902  0.43887481
  0.77606259  0.87841613  0.93131278
  0.95578616  0.05920939  0.43415986
  0.95208175  0.04888179  0.93156178
  0.95124537  0.23768077  0.43215092
  0.93416347  0.21228851  0.95913771
  0.96094379  0.39017296  0.41878920
  0.96212305  0.38653638  0.95181854
  0.95192198  0.55141018  0.44862967
  0.95996663  0.56476914  0.94546757
  0.95789609  0.70046569  0.44881324
  0.94367535  0.72880721  0.93664201
  0.95772684  0.87329038  0.43689688
  0.97344381  0.89661355  0.92957735
  0.09568841  0.01744670  0.46338915
  0.10794061  0.05031428  0.88027794
  0.16075159  0.19600189  0.39412398
  0.16966758  0.25785147  0.93011190
  0.10819733  0.42370001  0.41496782
  0.08422669  0.35075378  0.94418163
  0.07773744  0.58083097  0.42416118
  0.09001629  0.58619505  0.93752779
  0.08175019  0.65764176  0.44933672
  0.14492877  0.67515710  0.89492472
  0.16546761  0.87037616  0.39382288
  0.09042940  0.91461254  0.92564072
  0.29889323  0.09951386  0.42464938
  0.33966399  0.02729287  0.90407679
  0.25324567  0.26507975  0.44955627
  0.26675930  0.27533812  0.90242416
  0.28745345  0.35444854  0.40036428
  0.32982034  0.33898138  0.92576905
  0.24095826  0.56986976  0.44365851
  0.32979959  0.57607832  0.91490381
  0.29208789  0.68434756  0.39809244
  0.30934431  0.74968657  0.93021366
  0.28358845  0.82948575  0.42563584
  0.33764892  0.91439453  0.92121266
  0.40838613  0.98759580  0.44019728
  0.47702579  0.03590223  0.89654815
  0.45418110  0.18669645  0.47977447
  0.45151166  0.21182616  0.86301047
  0.42891402  0.38235807  0.40174017
  0.42266092  0.33063409  0.92038195
  0.47869243  0.52795764  0.49050981
  0.43388763  0.48339822  0.93131785
  0.42192094  0.73883062  0.39411573
  0.41916195  0.67712126  0.94910958
  0.45746475  0.82291347  0.43602141
  0.44832850  0.88610280  0.88673867
  0.57969343  0.98605201  0.43507589
  0.68379982  0.06836709  0.92414328
  0.65797914  0.17081750  0.42210565
  0.59772361  0.18618580  0.87228628
  0.61307839  0.38659892  0.37425244
  0.60621024  0.37731085  0.88195500
  0.61541122  0.50662225  0.38665501
  0.68291976  0.50690527  0.94264458
  0.61748918  0.72504336  0.37577486
  0.59387406  0.73461429  0.90429890
  0.59330639  0.89930695  0.43829863
  0.58699746  0.84292541  0.90365232
  0.83023337  0.05611198  0.40750196
  0.82598109  0.05508826  0.88570876
  0.76082266  0.16521658  0.43474797
  0.74920838  0.25477987  0.91717086
  0.82321078  0.34985884  0.44193478
  0.79052765  0.37695693  0.89281930
  0.78483068  0.54743368  0.36860611
  0.82517998  0.58020259  0.91673828
  0.79845703  0.70146258  0.36409667
  0.75604279  0.71274374  0.90209416
  0.74441410  0.90886939  0.45243973
  0.73586426  0.87385672  0.89202926
  0.94208768  0.11210895  0.43987133
  0.93246910  0.09415779  0.90044945
  0.94799647  0.23504204  0.49107920
  0.92786059  0.19393236  0.90162984
  0.94970731  0.44471666  0.39845026
  0.97397388  0.44102179  0.95394264
  0.94811358  0.57227787  0.39500757
  0.99258817  0.51844092  0.96182297
  0.00482382  0.73373988  0.45183032
  0.94182593  0.72872964  0.87807076
  0.94716134  0.89793105  0.38679335
  0.97980336  0.89567407  0.87034646
  0.01078408  0.14713835  0.35868589
  0.01088241  0.14650383  0.87140097
  0.04140452  0.29827822  0.36519946
  0.97229682  0.27304849  0.86742101
  0.03034447  0.45973420  0.37973641
  0.07712553  0.52525624  0.84864137
  0.09995905  0.59786255  0.32967476
  0.06079481  0.62899560  0.87392498
  0.03230689  0.78863354  0.39339123
  0.08082703  0.76114103  0.79807791
  0.03155864  0.91714881  0.35998908
  0.06533307  0.95456989  0.75932612
  0.21084736  0.13742072  0.25459625
  0.23355722  0.11548641  0.85151753
  0.23489108  0.29808756  0.37120855
  0.15633249  0.35151014  0.81395477
  0.19389417  0.41626213  0.37866248
  0.27055754  0.44303799  0.83106412
  0.17570824  0.59946956  0.37797327
  0.25561621  0.67813510  0.79229638
  0.23194900  0.80266264  0.36477426
  0.26470196  0.76354540  0.82979282
  0.26193931  0.91878641  0.31541888
  0.19041879  0.99599725  0.85798948
  0.42169052  0.17278208  0.30250760
  0.40016489  0.07194805  0.86241457
  0.39478426  0.30393714  0.37213802
  0.36122550  0.28314391  0.87423438
  0.39607751  0.43450114  0.32803910
  0.43079314  0.43123360  0.80354252
  0.38966746  0.60239691  0.37056004
  0.40693277  0.64371542  0.86848002
  0.38041511  0.82207760  0.36367152
  0.42192845  0.75828606  0.80284947
  0.43492896  0.95177307  0.32996721
  0.32456814  0.95717524  0.83619383
  0.57784060  0.17653297  0.30263001
  0.57647204  0.10023223  0.86293045
  0.58616451  0.32723375  0.32439231
  0.58411444  0.28850207  0.86831763
  0.48126385  0.45375892  0.35420506
  0.57250812  0.47227402  0.86999959
  0.52042090  0.63133049  0.35242169
  0.59692836  0.60374270  0.85623944
  0.47917287  0.78346340  0.33528679
  0.53414453  0.77696620  0.86680800
  0.58384802  0.00636010  0.29683725
  0.53804611  0.95258136  0.87491391
  0.73844971  0.15530263  0.29864321
  0.72563559  0.12070255  0.85316460
  0.75845643  0.26691147  0.31689940
  0.72803587  0.31386376  0.86785228
  0.75355961  0.44180916  0.29756058
  0.73782147  0.44118732  0.88455978
  0.72100498  0.61490999  0.34786715
  0.76414577  0.57570129  0.82339397
  0.75334815  0.73265129  0.28436775
  0.67762916  0.74126318  0.78681279
  0.70373621  0.89216306  0.32531187
  0.69490626  0.95371007  0.86100969
  0.82069688  0.11573077  0.31296297
  0.82198415  0.10168525  0.79568127
  0.90903632  0.29138828  0.32790095
  0.82438523  0.27199151  0.84290463
  0.89890985  0.51409131  0.34420374
  0.90286653  0.48010528  0.87500021
  0.93816820  0.67931631  0.30425950
  0.92964857  0.59261754  0.83220440
  0.89102242  0.84231039  0.36441907
  0.87005963  0.79971917  0.87596431
  0.86222381  0.92430711  0.32264764
  0.89047763  0.03037653  0.81364128
  0.99067307  0.10678416  0.02519653
  0.06200197  0.18318768  0.55994451
  0.08033229  0.23629348  0.05562074
  0.06473030  0.33697915  0.58990105
  0.02265813  0.46995275  0.12333446
  0.08690484  0.48567062  0.62205480
  0.08936899  0.61441632  0.02522229
  0.05719623  0.63653711  0.63662945
  0.06002316  0.83785016  0.08603134
  0.05726915  0.79627110  0.62866739
  0.07295849  0.98093662  0.11280599
  0.06860182  0.94923663  0.60600417
  0.20339472  0.13073211  0.12090083
  0.19344331  0.14412619  0.64074076
  0.24977519  0.33876178  0.09621200
  0.18759407  0.30246269  0.64045291
  0.24914703  0.41990206  0.03755903
  0.22629254  0.47744689  0.61645480
  0.20404067  0.61863835  0.12884271
  0.23335537  0.64259928  0.63035393
  0.17759386  0.78677642  0.11158022
  0.17469714  0.84062979  0.56294390
  0.24582498  0.98766207  0.05961679
  0.27224016  0.96173552  0.52281770
  0.39535279  0.13144209  0.11550074
  0.35333021  0.14139465  0.62729908
  0.41244354  0.26878271  0.08592934
  0.34204595  0.22928294  0.58573682
  0.40236418  0.42790416  0.00182010
  0.38260804  0.50475268  0.58095729
  0.41954258  0.63285394  0.08826770
  0.37800916  0.62661055  0.60611324
  0.36551209  0.80691384  0.11673155
  0.34426922  0.83445160  0.55210837
  0.34753604  0.95862730  0.12491416
  0.39380120  0.95267016  0.62859418
  0.56234656  0.10267690  0.09756256
  0.55482429  0.16455872  0.53785140
  0.54820710  0.28262162  0.10348694
  0.56797813  0.26166227  0.53475520
  0.58183547  0.41353078  0.04813436
  0.59577777  0.46280875  0.61433515
  0.50994334  0.66230396  0.07462403
  0.59302103  0.59804115  0.50295072
  0.51678212  0.79922886  0.13355883
  0.56317042  0.79118842  0.61228544
  0.54395954  0.00631982  0.09251842
  0.58059910  0.93682272  0.51523743
  0.67174655  0.09580179  0.08218491
  0.72706759  0.13514781  0.50597620
  0.71219837  0.30285528  0.11802239
  0.72388371  0.28829404  0.60166781
  0.71137816  0.45030610  0.12728141
  0.74358456  0.45272031  0.60200736
  0.75006197  0.65614158  0.05276880
  0.73495255  0.59532988  0.62163494
  0.71194780  0.80550990  0.01473617
  0.75206207  0.73996126  0.55643388
  0.72310195  0.96556426  0.12726140
  0.75580761  0.96121044  0.60953814
  0.92518408  0.15883789  0.06480501
  0.86250503  0.12579854  0.60293418
  0.92883810  0.31573865  0.03902305
  0.87256121  0.32750722  0.60203219
  0.87652393  0.45642655  0.13007045
  0.87687338  0.47485965  0.51379287
  0.88434541  0.62700518  0.12533823
  0.91782029  0.67514525  0.58313441
  0.89727526  0.83741061  0.09348954
  0.84505108  0.75446725  0.58675482
  0.84848283  0.93196052  0.09161697
  0.88912536  0.94714576  0.60894255
  0.09805701  0.06252244  0.14461898
  0.14860842  0.01150071  0.64234552
  0.10831297  0.16106893  0.19369140
  0.08292281  0.21888093  0.63381355
  0.08144680  0.40533569  0.15206982
  0.09560876  0.36197665  0.65897552
  0.09836300  0.56725991  0.15259209
  0.11938231  0.50595779  0.70797762
  0.13937984  0.68190153  0.13776894
  0.11900486  0.70316171  0.63036853
  0.15453576  0.88098104  0.15221866