2304
Lattice="40.159523010253906 0.0 0.0 0.0 42.61195373535156 0.0 -0.45381200313568115 0.0 39.60435485839844" Properties=species:S:1:pos:R:3:momenta:R:3:forces:R:3 energy=-10200.26171875 free_energy=-10200.26171875 stress="-0.006745765917003155 0.0001740634033922106 -0.0004779287555720657 0.0001740634033922106 -0.005922127980738878 0.0002589373616501689 -0.0004779287555720657 0.0002589373616501689 -0.006199078168720007" pbc="T T T"
Na      -6.14084657      -4.24283247      10.01727251      -0.40307964       0.81401199       0.44441184       0.34889483       0.11549952       0.09451079
Na      -5.24387335       1.02938360      28.78071219      -0.28594850      -1.25676046       0.56174498       0.09369621      -0.06102288      -0.25946629
Na       1.33610661       2.68643641      -0.10805189      -0.23886473       0.18565128      -0.16471655       0.05709765      -0.14836991      -0.04591160
Na       0.23672332       9.58239261      25.02538813       1.95753934       0.14647088       0.07685260      -0.20522836      -0.04808746       0.06247213
Na       5.10526870      19.82456060      -0.17807331       0.37570699      -0.21760998       0.49946766       0.05355781      -0.22689851       0.00803102
Na       1.16663826      13.59450734      29.41016302       0.21246256       0.43101164       0.68593652      -0.19500889      -0.00988752      -0.18017419
Na       2.03468771      19.22229233       7.80357935      -0.20775305      -0.42730343       0.20029163       0.21267025       0.03970239      -0.06693876
Na       1.46555083      23.45738097      21.11511847      -0.68167684      -2.09472434       1.21511883      -0.07651618      -0.02257980       0.20840523
Na       0.70509656      31.77205103       0.17862126       0.59141367      -1.10358032      -0.85208286      -0.22003053      -0.21915019      -0.55690873
Na       1.51008388      30.85010440      24.93545409      -0.61883163      -0.55073359      -0.85075176      -0.09230027       0.11017697      -0.11156456
Na       2.71415878      40.01832058       8.34278721      -2.04752258       1.00429259       0.43923209      -0.16826847       0.26778814       0.35120672
Na       2.58044101      37.40017689      25.26331873      -0.72239689      -0.16976631      -1.51814264      -0.06699722      -0.27782714      -0.46067393
Na       4.95933567       0.84506798       3.98334823      -0.11320623       0.50294550      -1.34611496      -0.03830671       0.10120729       0.12446319
Na       5.65006967       0.83336249      21.84167372      -0.47359416      -0.11790056      -2.27339989       0.05959178       0.04759040      -0.07802849
Na      10.11367672      13.02170897       8.97143193      -0.58312913       1.04612602      -0.58114463       0.64582115       0.41883534      -0.36275786
Na       7.69615712       9.34497537      25.72321458      -1.93944888       0.21206463      -1.22682457       0.16896826      -0.10733226      -0.13190018
Na      11.26390347      15.64294228       1.75608886       1.79897321      -0.42513006      -0.19324028       0.18669364      -0.23551041      -0.05619170
Na       4.18803612      11.80455430      24.66630725      -1.75234584       0.39163194       0.51154802      -0.16956154       0.28531840       0.22341684
Na       5.46000318      21.28074925      10.96039059      -0.15184439       1.12767427       0.81211850      -0.32252574      -0.07970555       0.40532747
Na       8.74626723      23.72324682      24.49167770      -1.52095160      -0.61736523      -0.82194426      -0.03073653      -0.26614967      -0.00697070
Na      11.56644637      26.24360538       9.46118930       1.46370389       1.03095456       0.12040766       0.07531022      -0.07531447       0.03204577
Na       9.08877647      23.76576001      29.36888370      -0.00860359       0.04849458       0.34863674       0.07746840      -0.00439210       0.25355798
Na       8.34970425      33.08799970       6.63997253       1.07920480       0.08476076      -1.57901697       0.06280953      -0.02817547       0.23530686
Na       8.37113345      37.49472747      19.73192835      -0.89120471      -0.68446267       0.49321140       0.00119583      -0.05374186      -0.27722785
Na       8.28098919      -5.61929045      -0.14259724       0.17913298       0.45416898       0.39209811       0.12136482       0.06255736       0.07380641
Na      12.85424265       3.80317533      25.47778677       0.48627238       0.86702245      -1.47283111       0.18338105      -0.11082028      -0.08042433
Na      14.64651489       8.89610315      -0.06835966      -0.33942452       0.48619680       0.91372576       0.09239656      -0.05601855      -0.11424386
Na      18.08925033      13.25912804      24.46022601      -0.76844477       2.05134519      -1.94048668      -0.22404261      -0.22749320       0.11748922
Na      16.40957736      19.40143368       8.18394231      -0.16812069       0.02830981       0.66959065      -0.20430836      -0.19954272       0.16006371
Na      15.56171629      16.59126604      29.55366381      -0.14085135      -1.12030827       0.60675209      -0.04615188       0.23008503      -0.09106753
Na      10.68037205      18.49446755      10.47382532       1.26333354       0.41484174       0.15022779       0.17254283      -0.34673777      -0.51313788
Na      13.46170437      24.28198247      23.44875090       1.38838291       0.51350281      -0.81743427       0.03633582       0.14334740       0.00849107
Na      18.07854672      33.14553148       4.74202606      -0.61862796      -0.51959846      -0.32148836      -0.24154565      -0.20144355       0.09620481
Na      20.30430908      30.53882070      19.98978039      -1.10763447      -0.77980857      -0.23435685       0.10596067       0.14594339       0.09128316
Na      15.10097716      32.89252432       8.91528217       1.01224658       0.90194007      -0.27004733       0.15081440       0.05866726      -0.03608128
Na      14.82003503      37.49191080      24.70670899       0.04927827       0.81628209      -1.25040297      -0.06544206       0.08605337       0.10348725
Na      20.89008698       1.13843506       0.71905948       1.35243664       0.66059980       0.12157961       0.34589636       0.33587107       0.20601684
Na      20.54509834       6.82189694      18.95515382      -1.76827443      -0.22461792       0.63551418       0.06873679       0.02992567      -0.20411630
Na      25.05972070      19.27371525       8.74555955      -0.59213517      -0.31023583       0.56449168      -0.07594272      -0.37447679       0.36927813
Na      24.16089575      11.68342803      23.34665810      -1.54685972       2.06999981       0.19204833       0.24081773      -0.07600008       0.09076008
Na      25.22810309      19.80088859       0.36177426       0.29916167       0.06209625      -0.31771048      -0.18642220      -0.18474895      -0.17226002
Na      24.71784798      14.27642117      30.32546025       0.09068556      -0.33732319       0.32570320      -0.11410347       0.08814587      -0.28308129
Na      18.62477778      19.36056593       5.19159123       0.25715443       1.61147795       0.61028825       0.18655086       0.03054408      -0.11210591
Na      19.31141819      20.50914404      24.82069375      -1.02668788      -1.37086031      -0.60340227      -0.28262281      -0.26507327       0.09483989
Na      22.96172654      30.00318266       2.47738423       0.30363855       0.60871285      -0.94720447       0.03993165      -0.23971766       0.02696171
Na      21.53601925      31.42817371      27.95737924       0.91064064       1.12483849      -0.14080072      -0.05083483      -0.01754330      -0.11196360
Na      25.03196820      38.01352867       2.48490273       0.80219796      -0.44147046      -0.18331852      -0.37628284       0.03515633      -0.14431082
Na      22.89718191      37.35903108      24.48618289       0.09935857       0.11178998       0.21254439      -0.04770609      -0.03861012      -0.08408488
Na      28.58315964       2.25388742       5.15909566       0.46929749      -0.20141318      -1.14020502      -0.19535127       0.31789470      -0.12645723
Na      26.93536510       0.54791559      32.99926840      -1.10716474       0.05839669       0.49904808      -0.07252102       0.06939854      -0.02801464
Na      26.17880036      12.10225917       6.11119334      -0.77435095       0.90732612       0.91546804      -0.01214552       0.60200989       0.03554637
Na      30.51287655       2.11527609      23.24981119       0.43810760       0.07318098      -0.09470880       0.00082808       0.19306751      -0.34844837
Na      31.16113887      12.91986127       4.62280724       0.53486451      -0.01495551      -1.86863622       0.21120712       0.02968116       0.00165304
Na      25.58500837      19.92870943      19.35403662      -1.49812848       0.96978942       0.52522991      -0.10772550      -0.29524100       0.49145529
Na      28.59821261      23.10322931       5.27302524       0.26019162      -1.24483802       0.84257615       0.10519700       0.02291987       0.12425707
Na      29.10675179      21.88949646      23.58267362      -1.39157234       1.07417902       0.05293756      -0.10962859       0.29235584      -0.15140815
Na      27.97703317      29.44696473       5.68053793       0.56629228      -0.63938253      -0.33904979      -0.11656566       0.23483798      -0.17677230
Na      31.81086008      33.10090676      30.97486297       0.96381613       1.00801546      -0.35523270       0.06521352      -0.29523966      -0.17270485
Na      29.37542379      36.79816537       2.50771215       1.55238275      -0.12960482      -0.32703156      -0.05482265       0.15710282      -0.23879832
Na      28.00487732      35.38758733      25.18277710       2.05813464      -0.77889639       0.31605699       0.23633975       0.00409077      -0.09245387
Na      34.97548779       2.73879347       5.58761372      -0.22759264       1.96759930      -0.91655759       0.04250187      -0.19397652      -0.05168531
Na      32.41979520      -1.47356639      19.02116214       1.32118511       0.94888552      -0.12189712      -0.06839404      -0.72098660       0.17124006
Na      35.70099359      11.10755362       9.29386050      -0.67520336      -0.33127310      -0.21266815       0.10071457       0.27866328       0.20933855
Na      32.17727873       6.27607937      25.19980104      -0.49819108      -0.35485338       0.26608517      -0.08676478       0.14230376       0.08903491
Na      31.32787121      21.90916266       1.80806598      -0.78449796      -0.22135725      -0.16792575      -0.14489850      -0.07651131      -0.13869183
Na      31.78022909      12.21192740      24.52697112       0.46849926       0.05612441      -0.21613920      -0.26464105       0.08055535       0.43476093
Na      35.42523052      22.90266493       5.12001010      -0.16846564       1.41704985      -1.27115058      -0.04256272       0.07101204       0.01725696
Na      35.12324260      22.85976828      25.36905447      -1.11294149      -1.97102121       0.04406635       0.06206530       0.04732890       0.14668345
Na      37.64216470      30.24319229       3.62899616       0.29180584      -0.13412714       2.18476156       0.08983649      -0.08880529      -0.11201462
Na      30.75844995      26.59594925      29.44698458      -0.34898186      -1.32215445      -2.22151801       0.18543038      -0.19934934       0.00451258
Na      34.55203477      34.83126325      -2.06720107      -1.27582055      -0.84252452      -0.90033126      -0.02105194      -0.17077704       0.05432694
Na      32.49983950      39.81801308      24.28580587      -0.43563161      -0.31599751      -1.34700346      -0.08175747       0.37805361      -0.05306230
Na       4.69195120       8.09197589      12.42079502       0.11547745      -1.47668258      -0.48368039       1.14343536       0.06077402       0.14469713
Na       4.24670873       6.07541505      20.14527611       1.70918000       0.73582716       0.31612084       0.20796482       0.42428049       0.40870008
Na       1.02504946       8.51656185       4.88118388      -0.49327253      -1.34499653       0.12386885       0.06829444      -0.03290360       0.29856461
Na       8.03485250      15.67283997      25.53857655       0.48195047      -0.50766152       0.91193690       0.05632382       0.00881210      -0.09041970
Na       5.56766537      18.32219832       4.30288015      -0.36874964       2.09458136      -1.24677897      -0.10566354      -0.02996354       0.50211638
Na       5.61292046      22.01055432      22.31212845      -0.31276096      -0.37956794       0.41992096      -0.26582164      -0.03873283      -0.12347041
Na       2.10417351      26.10770477       7.11162310      -0.15388215       0.25671518      -1.36960099      -0.03809617      -0.12033912       0.08679391
Na       6.26856631      27.88160869      24.72555599       0.73522326       0.81549973      -0.17026221       0.28254700      -0.12592411      -0.06149092
Na       5.54117645      33.33865999      -1.13203634       0.99225384      -0.12743720       0.51032743       0.05326027       0.22935931       0.03428867
Na       5.44948636      33.75640624      28.80821855      -0.43894508      -0.46054034       0.92597124       0.23397598       0.19532815       0.12433903
Na       1.60505166      33.77373724       5.32940693       1.03018269       0.49223247      -0.15740803      -0.24246210       0.02772049       0.10389430
Na       7.75356966      41.87513306      26.73472622      -0.58204752       0.47449891      -0.73834819      -0.02859069      -0.00142680       0.15084861
Na      11.22497854       5.47340982       4.74284105       0.35568579       1.86203213       0.70928848      -0.17019251      -0.16666150       0.12459329
Na       8.00856434       4.14182051      28.32690141      -0.52528606       0.50489139       0.47068120      -0.06358818      -0.12561147      -0.08159936
Na       1.02848120      10.00690718       0.07891309       0.18521236      -0.03525852      -1.16486756       0.08940700      -0.22450179      -0.04220916
Na      10.82405811      12.26007477      29.87148657       0.96388590      -0.61904972      -0.58086929      -0.14537400      -0.00286307      -0.18946236
Na      10.36170517      10.01378966       1.64004413      -0.14851744       1.01104991      -0.87220742       0.00568021      -0.02403995       0.09739946
Na      16.08458759      22.58265793      20.04829624       1.27534402       0.77908837      -0.44551572       0.16682047      -0.10891755       0.14336228
Na       9.30979241      23.72359865      -0.24627771      -1.03979768      -1.10951743      -0.73239538       0.23106721       0.12690678       0.23631282
Na      14.10519843      29.77878452      24.32206859      -0.84925994      -0.96385094       0.15678441       0.44327271       0.01697714       0.17738374
Na      11.60544417      29.79371387       2.49688147       0.83015615      -0.27526915       1.39954256       0.02204112       0.05996816      -0.20551839
Na      11.65430843      33.84266859      25.28691162      -0.08561936      -0.54336144      -0.71779630       0.08800555       0.06223184       0.03815719
Na      11.29996983      40.35078763       5.43629855       1.25295087      -0.72659322       0.45785622      -0.25877532       0.08649209      -0.42335019
Na       3.96315353      46.09438191      31.33146690      -0.75193667       0.45161890      -0.17197684       0.05075302      -0.12628545       0.07800594
Na      18.14597149       9.01292029       3.24061384       0.11057824       0.54162224      -1.02155432      -0.07589972      -0.18683386      -0.08368062
Na      16.98222743       4.46650356      29.06585626       0.32879035      -1.63745601      -1.30105382       0.29230818       0.24602398       0.01104755
Na      19.59471013      12.98054809       6.08769673       0.21982159      -0.19896024      -1.03801377       0.15193303      -0.02120495      -0.18584540
Na      13.80487753      11.07092072      15.58735306       0.61835349      -0.25570546      -0.27408493       0.33300710       0.03718639       0.11104365
Na      15.74272931      23.01594451       4.45036179       0.22184772      -0.44266426       1.39802020      -0.23337862      -0.02549726      -0.13909903
Na      12.98290040      20.26663871      25.33428782       0.05223479      -0.98150467       0.40566503       0.00418447      -0.50004447      -0.15331629
Na      18.60153330      27.42281770      -0.20845594      -0.23396319      -0.00405940      -1.18512122       0.32405612      -0.00257312      -0.03850587
Na      22.03613343      26.04417253      25.23450472      -0.72207865      -0.46315213       0.08873047      -0.13819970      -0.12554988       0.44522637
Na      16.39323129      37.96601700       0.57875370      -0.28368254      -1.33513089      -0.03602982      -0.16922587      -0.03052907      -0.04118869
Na      17.47320243      40.68899612      19.13587278      -1.69231607       1.01841597       0.80057195       0.10020276      -0.05459126       0.52724040
Na      16.63347547      40.60111680       5.71528394      -1.37849284       1.45942622       1.64256659       0.01402028       0.06553137       0.57859564
Na      18.84530120      39.84843920      29.73131391      -0.46353371      -0.77641015      -0.44534385       0.28754172       0.00006567      -0.25213766
Na      18.65687406       5.57256952       8.51659240       0.24397587       1.27053431      -0.46401616       0.20572898       0.04292333      -0.02767603
Na      26.62181343       3.87988030      26.03235186      -0.73437257      -0.58518907      -0.53330094       0.12072194       0.20719883       0.38125718
Na      24.82988066       6.33828895       3.82770416       0.11135213       0.88746448       0.35235274       0.45113003      -0.31127498       0.25597778
Na      24.07491759       7.18307049      23.23951593      -0.78388071      -0.67058009       1.21741035       0.12112917       0.06457431      -0.08041711
Na      27.94238683      15.74028804       9.61906414       0.11525812       1.65705533       0.06901460       0.28842556      -0.74825227      -0.02227100
Na      29.94700252      15.87244747      30.47516537       1.38082172       0.91791860      -0.57545581      -0.07704598       0.03298061      -0.14637892
Na      24.20604149      24.99955978       4.33321101      -0.38943678      -0.16088213       0.00764909       0.17281587      -0.00994486       0.11772232
Na      27.13320302      27.23353893      25.44143691       0.42967282      -0.34405575       1.42832657       0.14003432      -0.15144494      -0.01813814
Na      19.67608920      37.20051441       3.10290461       0.86491260      -0.99904664       0.80903935       0.26374945       0.04148301      -0.21316308
Na      24.89666690      33.63350773      19.24565348       0.58952913      -0.24411890       0.76890088      -0.08477449      -0.01278589      -0.09370644
Na      20.30557574      41.21329617       8.31052338       0.64941919      -0.02801191      -0.43645516       0.02324042       0.05701322       0.13240322
Na      31.32567448      33.56433626      20.66115987      -0.93517972      -0.08415962      -0.16166051       0.11104327      -0.06454130      -0.07736000
Na      31.65018363       5.42542557       6.50514377      -0.01677490       1.76505587       1.56638827      -0.10217309       0.18327083      -0.09824775
Na      24.86099879       1.39213915      22.93416960      -0.17225282      -0.06200281      -0.17779241      -0.21592923      -0.19479132      -0.01131830
Na      38.77013901      12.64009632       4.12356601       0.68018757      -0.72000168      -0.34564267       0.37625968      -0.05167645       0.06142233
Na      34.83531375      15.54291580      29.44005775      -0.58039861      -1.11335145      -0.06942591      -0.28286758      -0.51665872       0.18442683
Na      31.03585705      19.28123299       8.83385962      -0.51539241      -0.94753152       1.34224897      -0.20650204       0.27804384       0.13769603
Na      34.16321228      16.14359885      19.55232208       1.18826268      -0.14774625       0.52133377       0.02994056       0.35962588      -0.27530676
Na      32.42364523      31.13754001       3.23145178       0.86713169       1.00166503      -0.52680509       0.10516939       0.08494089      -0.41033614
Na      34.88209879      23.07170555      20.44758197       0.59903696      -1.93656792       0.78024905       0.12553273       0.08599973      -0.13820249
Na      33.35869519      33.54766142       6.26777160      -0.08812143      -0.01582663       0.63296111       0.32012501       0.30214763       0.43051872
Na      34.89151070      29.65847476      25.50103111       0.76482554       0.37994376      -0.29008092      -0.30403268      -0.30903301      -0.21323720
Na      31.92995361      41.18986522       4.85016009      -0.60301644       1.17316684      -0.94736250       0.01662528       0.10455316       0.00956783
Na      38.18253427      40.58117757      24.90875437       0.33262902       0.80675595       0.20623189       0.00497473       0.20275760      -0.01357452
Na      42.22796997       5.60795576       8.71110773       0.20985330       1.14524124       1.31142494      -0.10440583      -0.07846815       0.13014495
Na      41.55810696       6.66029791      16.78045364      -0.42413647       0.05028887       0.01840505       0.09020752      -0.03569874      -0.01422760
Na      32.62745811       9.10121534       1.50969214       0.92691334      -0.39453866      -1.19465767      -0.02351908      -0.07498616       0.02526458
Na      41.37445386      16.17108228      21.80704479       2.05868434       0.66870481       1.46263165       0.13479583      -0.28120527      -0.29143944
Na      36.11242190      13.97956157      -1.04323001      -0.43558413       0.94130472      -0.00883107       0.17967048       0.11576065       0.25351569
Na      41.79698185      20.83458455      26.77490373      -0.28844263      -0.06622807      -1.76003156      -0.11194399       0.21492928       0.38337028
Na      43.00028434      23.99593000       2.84368493       1.62070520      -0.45290554       0.28675782      -0.05891980       0.20774904       0.02426974
Na      35.45456972      29.94660664      20.34486222      -0.04431274       2.31703276      -0.59596116      -0.14156187      -0.06310642       0.07447335
Na      38.45786717      32.30903464      11.13671499       1.27587313       1.58593613       0.50402119       0.06515749      -0.02822541      -0.06657532
Na      41.63721834      30.18958557      29.89189594       0.46324731      -0.62116463       0.01850098       0.10212168      -0.18738806       0.53226715
Na      38.42135334      41.17047692       6.31839123       1.25220236      -0.83395771      -0.61510110       0.18853088      -0.29169005       0.03830859
Na      38.25443409      42.07337051      19.68913489      -0.39386849      -1.79699482      -0.79588756      -0.18728355       0.01923372      -0.07443500
Na       8.46632688       8.77896282       9.80450217      -0.34031365      -0.73900069      -0.42933763       0.29682037       0.03537976      -0.06310851
Na       1.22772402       9.18120035      35.03962864       0.53703295      -0.78731734      -0.01539089      -0.18870671      -0.68551123       0.64982426
Na       4.02494560      13.02970224      16.08494085       0.71163647      -0.92557294      -0.56774670       0.13152798      -0.37299168       0.09559223
Na       2.65070341      17.37677987      30.87706353       0.90474034       0.86677482       1.58833185       0.03876834       0.41493782       0.07931715
Na       6.55534367      19.99212550      16.53865091       0.57877896      -1.36212412       0.39356409       0.07912729      -0.10755177      -0.02809162
Na       1.40820571      22.97881738      36.53793301      -0.95481443       1.45384536       0.74494952      -0.02557926      -0.29676992      -0.17626587
Na       8.27249319      28.63944308      10.43167056       0.26200010      -0.98614263       1.28765104      -0.39683905      -0.03047324      -0.01306923
Na       0.65880476      29.01414434      35.44204112      -0.04619264      -0.01612920      -1.87070497      -0.12171920       0.21007214      -0.09518074
Na       3.65398379      34.39928345      10.72142174      -1.68331264      -1.20186883      -0.97302007       0.20286106       0.11570439      -0.14985292
Na       4.44540528      30.81347335      33.15423338      -1.39495248       0.69695279      -1.78527527       0.14571114       0.06087180       0.16363072
Na       5.71296313      39.66550970      14.74410237       0.10142390       0.96069965       0.12932793      -0.17161635       0.03015748       0.09624258
Na       2.94568012      40.53262319      38.97736243       0.64198588      -2.50908126      -1.04617657       0.02706372      -0.19283056       0.06431812
Na       9.98534670       5.95955109      19.66968569       1.13654715       0.40605170       1.52293528      -0.02748206      -0.07594756       0.15877293
Na      14.76108571       9.36999653      34.85409562       1.48721253       0.80314316       0.77506044      -0.01552550      -0.12180461      -0.29923373
Na      14.78062155       7.90772981      19.38107874       0.60698320       0.09392692       0.18898882      -0.11780855      -0.14371285       0.39830256
Na       4.52308760      12.36525459      35.49389877       0.75881705      -1.17383386      -0.57427796       0.03562625       0.20815432      -0.10884296
Na      15.90321402      18.67900361      16.39621095       1.49111684      -1.31875709       0.22248396      -0.46472973       0.16337720      -0.45214555
Na      13.67219186      18.42708910      37.97246442      -1.26273808       1.98891520      -0.45098088       0.13300693       0.04900936      -0.14003064
Na       4.35924684      27.00885472      15.77658065      -1.45245258       0.04400139      -1.56790029       0.14920636      -0.21819064      -0.33366305
Na      10.57560533      24.57766948      34.41233575       0.29921295      -0.12144450      -0.52693722      -0.00048399       0.70804954      -1.17159760
Na      11.42933885      34.18308564      20.20947187       0.29224760       0.83901981      -0.46977335      -0.14738634       0.15445319       0.01624744
Na      11.13653380      33.78194156      35.37953823      -0.39974187      -0.01914329      -0.26655454      -0.07081178       0.45089242      -0.27798980
Na      11.85071447      41.05574494      15.03948353       0.31313303      -0.49749456       0.33918390      -0.19873503      -0.01181720       0.02962794
Na       8.99139040      44.55614884      33.91583505      -0.36994238      -0.93832300       0.48757281       0.04035551      -0.00424027      -0.03708801
Na      18.30760475       2.38007176      12.80327153      -0.95992072      -0.25263106       0.67172776       0.28844380       0.24038664      -0.05482610
Na      10.90697352       7.00775153      32.56031941      -0.11018110       0.25032724      -0.52292246       0.12208271      -0.05322832       0.04748081
Na      16.31596293      13.10918548      20.13315513       1.38196978      -0.08189935       1.14743085       0.05756165       0.03877040      -0.07771299
Na      17.28338772      10.96042025      30.81788951       0.12064461       1.80991182      -0.37461150      -0.07537086       0.57530117       0.20735297
Na      19.40439089      16.42057120      13.81120757       0.20555167      -0.76200387       0.18650148      -0.02936541      -0.33786744       0.50418293
Na      21.08453059      15.96411602      34.27642763       0.73075517      -0.11972469      -0.39373883       0.22173244       0.21303806      -0.21498317
Na      17.99716946      31.43475195      12.23253216       0.30897038      -0.03917048       1.59526691      -0.03496139      -0.53155029      -0.25828704
Na      19.33701072      24.84787369      34.74502614       0.57101666       1.00415943      -2.53254971      -0.03914811       0.56409407      -0.26408720
Na      15.41213104      33.09234228      17.57552931      -0.80378888       1.07253602      -0.96652734      -0.03290930       0.29623103      -0.58548272
Na      15.03518351      30.36808361      30.38487701      -0.62583362      -2.19792647       1.34543245       0.27103737       0.03094496       0.00271335
Na      22.88622431      45.06507748       9.79122097       0.70295467       0.12235748      -0.66450672      -0.27774945       0.13458872       0.33157599
Na      17.24064068      43.25734338      33.81098073      -0.64566548       1.10167224      -1.43414330      -0.67373699      -0.17541368      -0.71660137
Na      24.97839706       4.33007890      14.44239526       0.80387651      -1.47136951      -0.60515145      -0.15109733      -0.01370751       0.13236618
Na      24.76015376       8.97593824      31.75349019      -0.88452978      -2.33324036      -0.49175979      -0.16075206      -0.10240991      -0.00177149
Na      24.70372497      11.53210834      14.20230832       0.11325372       0.40289819       1.25137419       0.20581302      -0.12309493       0.07655655
Na      17.40112888      13.59692763      39.29214153       0.08756333       0.40764716      -0.61298829      -0.09432974      -0.04188443      -0.05025467
Na      22.58216705      19.31940710      15.60516391       1.30723381      -1.18829072       0.77920453      -0.10162452      -0.10127389      -0.04952233
Na      25.44768860      19.51944465      35.16284879       0.66230133      -1.30541472       0.57338852      -0.19157380       0.26710987      -0.09987366
Na      23.87099491      26.81245071      14.75112636      -1.21858944       0.22712656      -1.38468026      -0.05685890       0.09512159      -0.03010046
Na      24.47023883      23.61397847      32.17757411       1.24145954      -0.28002783      -0.69675642       0.09172180       0.28107712      -0.07524356
Na      26.31242881      37.82750326      10.75809087      -0.05090058      -0.36039156      -0.39948867       0.21915881       0.01337894       0.21109004